s -t 0.030755339 -Hs 0 -Hd -1 -Ni 0 -Nx 250.00 -Ny 250.00 -Nz 0.00 -Ne -1.000000 -Nl RTR -Nw --- -Ma 0 -Md 0 -Ms 0 -Mt 0 -Is 0.255 -Id -1.255 -It message -Il 32 -If 0 -Ii 0 -Iv 32 
s -t 0.031090339 -Hs 0 -Hd -1 -Ni 0 -Nx 250.00 -Ny 250.00 -Nz 0.00 -Ne -1.000000 -Nl MAC -Nw --- -Ma 0 -Md ffffffff -Ms 0 -Mt 800 -Is 0.255 -Id -1.255 -It message -Il 90 -If 0 -Ii 0 -Iv 32 
r -t 0.031810339 -Hs 1 -Hd -1 -Ni 1 -Nx 250.00 -Ny 250.00 -Nz 0.00 -Ne -1.000000 -Nl MAC -Nw --- -Ma 0 -Md ffffffff -Ms 0 -Mt 800 -Is 0.255 -Id -1.255 -It message -Il 32 -If 0 -Ii 0 -Iv 32 
r -t 0.031810339 -Hs 2 -Hd -1 -Ni 2 -Nx 250.00 -Ny 250.00 -Nz 0.00 -Ne -1.000000 -Nl MAC -Nw --- -Ma 0 -Md ffffffff -Ms 0 -Mt 800 -Is 0.255 -Id -1.255 -It message -Il 32 -If 0 -Ii 0 -Iv 32 
r -t 0.031810339 -Hs 3 -Hd -1 -Ni 3 -Nx 250.00 -Ny 250.00 -Nz 0.00 -Ne -1.000000 -Nl MAC -Nw --- -Ma 0 -Md ffffffff -Ms 0 -Mt 800 -Is 0.255 -Id -1.255 -It message -Il 32 -If 0 -Ii 0 -Iv 32 
r -t 0.031810339 -Hs 4 -Hd -1 -Ni 4 -Nx 250.00 -Ny 250.00 -Nz 0.00 -Ne -1.000000 -Nl MAC -Nw --- -Ma 0 -Md ffffffff -Ms 0 -Mt 800 -Is 0.255 -Id -1.255 -It message -Il 32 -If 0 -Ii 0 -Iv 32 
r -t 0.031810339 -Hs 5 -Hd -1 -Ni 5 -Nx 250.00 -Ny 250.00 -Nz 0.00 -Ne -1.000000 -Nl MAC -Nw --- -Ma 0 -Md ffffffff -Ms 0 -Mt 800 -Is 0.255 -Id -1.255 -It message -Il 32 -If 0 -Ii 0 -Iv 32 
r -t 0.031835339 -Hs 1 -Hd -1 -Ni 1 -Nx 250.00 -Ny 250.00 -Nz 0.00 -Ne -1.000000 -Nl RTR -Nw --- -Ma 0 -Md ffffffff -Ms 0 -Mt 800 -Is 0.255 -Id -1.255 -It message -Il 32 -If 0 -Ii 0 -Iv 32 
r -t 0.031835339 -Hs 2 -Hd -1 -Ni 2 -Nx 250.00 -Ny 250.00 -Nz 0.00 -Ne -1.000000 -Nl RTR -Nw --- -Ma 0 -Md ffffffff -Ms 0 -Mt 800 -Is 0.255 -Id -1.255 -It message -Il 32 -If 0 -Ii 0 -Iv 32 
r -t 0.031835339 -Hs 3 -Hd -1 -Ni 3 -Nx 250.00 -Ny 250.00 -Nz 0.00 -Ne -1.000000 -Nl RTR -Nw --- -Ma 0 -Md ffffffff -Ms 0 -Mt 800 -Is 0.255 -Id -1.255 -It message -Il 32 -If 0 -Ii 0 -Iv 32 
r -t 0.031835339 -Hs 4 -Hd -1 -Ni 4 -Nx 250.00 -Ny 250.00 -Nz 0.00 -Ne -1.000000 -Nl RTR -Nw --- -Ma 0 -Md ffffffff -Ms 0 -Mt 800 -Is 0.255 -Id -1.255 -It message -Il 32 -If 0 -Ii 0 -Iv 32 
r -t 0.031835339 -Hs 5 -Hd -1 -Ni 5 -Nx 250.00 -Ny 250.00 -Nz 0.00 -Ne -1.000000 -Nl RTR -Nw --- -Ma 0 -Md ffffffff -Ms 0 -Mt 800 -Is 0.255 -Id -1.255 -It message -Il 32 -If 0 -Ii 0 -Iv 32 
s -t 0.177886797 -Hs 1 -Hd -1 -Ni 1 -Nx 250.00 -Ny 250.00 -Nz 0.00 -Ne -1.000000 -Nl RTR -Nw --- -Ma 0 -Md 0 -Ms 0 -Mt 0 -Is 1.255 -Id -1.255 -It message -Il 32 -If 0 -Ii 1 -Iv 32 
s -t 0.178121797 -Hs 1 -Hd -1 -Ni 1 -Nx 250.00 -Ny 250.00 -Nz 0.00 -Ne -1.000000 -Nl MAC -Nw --- -Ma 0 -Md ffffffff -Ms 1 -Mt 800 -Is 1.255 -Id -1.255 -It message -Il 90 -If 0 -Ii 1 -Iv 32 
r -t 0.178841797 -Hs 0 -Hd -1 -Ni 0 -Nx 250.00 -Ny 250.00 -Nz 0.00 -Ne -1.000000 -Nl MAC -Nw --- -Ma 0 -Md ffffffff -Ms 1 -Mt 800 -Is 1.255 -Id -1.255 -It message -Il 32 -If 0 -Ii 1 -Iv 32 
r -t 0.178841797 -Hs 2 -Hd -1 -Ni 2 -Nx 250.00 -Ny 250.00 -Nz 0.00 -Ne -1.000000 -Nl MAC -Nw --- -Ma 0 -Md ffffffff -Ms 1 -Mt 800 -Is 1.255 -Id -1.255 -It message -Il 32 -If 0 -Ii 1 -Iv 32 
r -t 0.178841797 -Hs 3 -Hd -1 -Ni 3 -Nx 250.00 -Ny 250.00 -Nz 0.00 -Ne -1.000000 -Nl MAC -Nw --- -Ma 0 -Md ffffffff -Ms 1 -Mt 800 -Is 1.255 -Id -1.255 -It message -Il 32 -If 0 -Ii 1 -Iv 32 
r -t 0.178841797 -Hs 4 -Hd -1 -Ni 4 -Nx 250.00 -Ny 250.00 -Nz 0.00 -Ne -1.000000 -Nl MAC -Nw --- -Ma 0 -Md ffffffff -Ms 1 -Mt 800 -Is 1.255 -Id -1.255 -It message -Il 32 -If 0 -Ii 1 -Iv 32 
r -t 0.178841797 -Hs 5 -Hd -1 -Ni 5 -Nx 250.00 -Ny 250.00 -Nz 0.00 -Ne -1.000000 -Nl MAC -Nw --- -Ma 0 -Md ffffffff -Ms 1 -Mt 800 -Is 1.255 -Id -1.255 -It message -Il 32 -If 0 -Ii 1 -Iv 32 
r -t 0.178866797 -Hs 0 -Hd -1 -Ni 0 -Nx 250.00 -Ny 250.00 -Nz 0.00 -Ne -1.000000 -Nl RTR -Nw --- -Ma 0 -Md ffffffff -Ms 1 -Mt 800 -Is 1.255 -Id -1.255 -It message -Il 32 -If 0 -Ii 1 -Iv 32 
r -t 0.178866797 -Hs 2 -Hd -1 -Ni 2 -Nx 250.00 -Ny 250.00 -Nz 0.00 -Ne -1.000000 -Nl RTR -Nw --- -Ma 0 -Md ffffffff -Ms 1 -Mt 800 -Is 1.255 -Id -1.255 -It message -Il 32 -If 0 -Ii 1 -Iv 32 
r -t 0.178866797 -Hs 3 -Hd -1 -Ni 3 -Nx 250.00 -Ny 250.00 -Nz 0.00 -Ne -1.000000 -Nl RTR -Nw --- -Ma 0 -Md ffffffff -Ms 1 -Mt 800 -Is 1.255 -Id -1.255 -It message -Il 32 -If 0 -Ii 1 -Iv 32 
r -t 0.178866797 -Hs 4 -Hd -1 -Ni 4 -Nx 250.00 -Ny 250.00 -Nz 0.00 -Ne -1.000000 -Nl RTR -Nw --- -Ma 0 -Md ffffffff -Ms 1 -Mt 800 -Is 1.255 -Id -1.255 -It message -Il 32 -If 0 -Ii 1 -Iv 32 
r -t 0.178866797 -Hs 5 -Hd -1 -Ni 5 -Nx 250.00 -Ny 250.00 -Nz 0.00 -Ne -1.000000 -Nl RTR -Nw --- -Ma 0 -Md ffffffff -Ms 1 -Mt 800 -Is 1.255 -Id -1.255 -It message -Il 32 -If 0 -Ii 1 -Iv 32 
M 0.50000 1 (250.00, 250.00, 0.00), (27.00, 27.00), 12.00
s -t 0.634520820 -Hs 4 -Hd -1 -Ni 4 -Nx 250.00 -Ny 250.00 -Nz 0.00 -Ne -1.000000 -Nl RTR -Nw --- -Ma 0 -Md 0 -Ms 0 -Mt 0 -Is 4.255 -Id -1.255 -It message -Il 32 -If 0 -Ii 2 -Iv 32 
s -t 0.635075820 -Hs 4 -Hd -1 -Ni 4 -Nx 250.00 -Ny 250.00 -Nz 0.00 -Ne -1.000000 -Nl MAC -Nw --- -Ma 0 -Md ffffffff -Ms 4 -Mt 800 -Is 4.255 -Id -1.255 -It message -Il 90 -If 0 -Ii 2 -Iv 32 
r -t 0.635795820 -Hs 3 -Hd -1 -Ni 3 -Nx 250.00 -Ny 250.00 -Nz 0.00 -Ne -1.000000 -Nl MAC -Nw --- -Ma 0 -Md ffffffff -Ms 4 -Mt 800 -Is 4.255 -Id -1.255 -It message -Il 32 -If 0 -Ii 2 -Iv 32 
r -t 0.635795820 -Hs 2 -Hd -1 -Ni 2 -Nx 250.00 -Ny 250.00 -Nz 0.00 -Ne -1.000000 -Nl MAC -Nw --- -Ma 0 -Md ffffffff -Ms 4 -Mt 800 -Is 4.255 -Id -1.255 -It message -Il 32 -If 0 -Ii 2 -Iv 32 
r -t 0.635795820 -Hs 0 -Hd -1 -Ni 0 -Nx 250.00 -Ny 250.00 -Nz 0.00 -Ne -1.000000 -Nl MAC -Nw --- -Ma 0 -Md ffffffff -Ms 4 -Mt 800 -Is 4.255 -Id -1.255 -It message -Il 32 -If 0 -Ii 2 -Iv 32 
r -t 0.635795820 -Hs 5 -Hd -1 -Ni 5 -Nx 250.00 -Ny 250.00 -Nz 0.00 -Ne -1.000000 -Nl MAC -Nw --- -Ma 0 -Md ffffffff -Ms 4 -Mt 800 -Is 4.255 -Id -1.255 -It message -Il 32 -If 0 -Ii 2 -Iv 32 
r -t 0.635795826 -Hs 1 -Hd -1 -Ni 1 -Nx 248.85 -Ny 248.85 -Nz 0.00 -Ne -1.000000 -Nl MAC -Nw --- -Ma 0 -Md ffffffff -Ms 4 -Mt 800 -Is 4.255 -Id -1.255 -It message -Il 32 -If 0 -Ii 2 -Iv 32 
r -t 0.635820820 -Hs 3 -Hd -1 -Ni 3 -Nx 250.00 -Ny 250.00 -Nz 0.00 -Ne -1.000000 -Nl RTR -Nw --- -Ma 0 -Md ffffffff -Ms 4 -Mt 800 -Is 4.255 -Id -1.255 -It message -Il 32 -If 0 -Ii 2 -Iv 32 
r -t 0.635820820 -Hs 2 -Hd -1 -Ni 2 -Nx 250.00 -Ny 250.00 -Nz 0.00 -Ne -1.000000 -Nl RTR -Nw --- -Ma 0 -Md ffffffff -Ms 4 -Mt 800 -Is 4.255 -Id -1.255 -It message -Il 32 -If 0 -Ii 2 -Iv 32 
r -t 0.635820820 -Hs 0 -Hd -1 -Ni 0 -Nx 250.00 -Ny 250.00 -Nz 0.00 -Ne -1.000000 -Nl RTR -Nw --- -Ma 0 -Md ffffffff -Ms 4 -Mt 800 -Is 4.255 -Id -1.255 -It message -Il 32 -If 0 -Ii 2 -Iv 32 
r -t 0.635820820 -Hs 5 -Hd -1 -Ni 5 -Nx 250.00 -Ny 250.00 -Nz 0.00 -Ne -1.000000 -Nl RTR -Nw --- -Ma 0 -Md ffffffff -Ms 4 -Mt 800 -Is 4.255 -Id -1.255 -It message -Il 32 -If 0 -Ii 2 -Iv 32 
r -t 0.635820826 -Hs 1 -Hd -1 -Ni 1 -Nx 248.85 -Ny 248.85 -Nz 0.00 -Ne -1.000000 -Nl RTR -Nw --- -Ma 0 -Md ffffffff -Ms 4 -Mt 800 -Is 4.255 -Id -1.255 -It message -Il 32 -If 0 -Ii 2 -Iv 32 
s -t 0.890417050 -Hs 2 -Hd -1 -Ni 2 -Nx 250.00 -Ny 250.00 -Nz 0.00 -Ne -1.000000 -Nl RTR -Nw --- -Ma 0 -Md 0 -Ms 0 -Mt 0 -Is 2.255 -Id -1.255 -It message -Il 32 -If 0 -Ii 3 -Iv 32 
s -t 0.890712050 -Hs 2 -Hd -1 -Ni 2 -Nx 250.00 -Ny 250.00 -Nz 0.00 -Ne -1.000000 -Nl MAC -Nw --- -Ma 0 -Md ffffffff -Ms 2 -Mt 800 -Is 2.255 -Id -1.255 -It message -Il 90 -If 0 -Ii 3 -Iv 32 
r -t 0.891432050 -Hs 0 -Hd -1 -Ni 0 -Nx 250.00 -Ny 250.00 -Nz 0.00 -Ne -1.000000 -Nl MAC -Nw --- -Ma 0 -Md ffffffff -Ms 2 -Mt 800 -Is 2.255 -Id -1.255 -It message -Il 32 -If 0 -Ii 3 -Iv 32 
r -t 0.891432050 -Hs 3 -Hd -1 -Ni 3 -Nx 250.00 -Ny 250.00 -Nz 0.00 -Ne -1.000000 -Nl MAC -Nw --- -Ma 0 -Md ffffffff -Ms 2 -Mt 800 -Is 2.255 -Id -1.255 -It message -Il 32 -If 0 -Ii 3 -Iv 32 
r -t 0.891432050 -Hs 4 -Hd -1 -Ni 4 -Nx 250.00 -Ny 250.00 -Nz 0.00 -Ne -1.000000 -Nl MAC -Nw --- -Ma 0 -Md ffffffff -Ms 2 -Mt 800 -Is 2.255 -Id -1.255 -It message -Il 32 -If 0 -Ii 3 -Iv 32 
r -t 0.891432050 -Hs 5 -Hd -1 -Ni 5 -Nx 250.00 -Ny 250.00 -Nz 0.00 -Ne -1.000000 -Nl MAC -Nw --- -Ma 0 -Md ffffffff -Ms 2 -Mt 800 -Is 2.255 -Id -1.255 -It message -Il 32 -If 0 -Ii 3 -Iv 32 
r -t 0.891432065 -Hs 1 -Hd -1 -Ni 1 -Nx 246.68 -Ny 246.68 -Nz 0.00 -Ne -1.000000 -Nl MAC -Nw --- -Ma 0 -Md ffffffff -Ms 2 -Mt 800 -Is 2.255 -Id -1.255 -It message -Il 32 -If 0 -Ii 3 -Iv 32 
r -t 0.891457050 -Hs 0 -Hd -1 -Ni 0 -Nx 250.00 -Ny 250.00 -Nz 0.00 -Ne -1.000000 -Nl RTR -Nw --- -Ma 0 -Md ffffffff -Ms 2 -Mt 800 -Is 2.255 -Id -1.255 -It message -Il 32 -If 0 -Ii 3 -Iv 32 
r -t 0.891457050 -Hs 3 -Hd -1 -Ni 3 -Nx 250.00 -Ny 250.00 -Nz 0.00 -Ne -1.000000 -Nl RTR -Nw --- -Ma 0 -Md ffffffff -Ms 2 -Mt 800 -Is 2.255 -Id -1.255 -It message -Il 32 -If 0 -Ii 3 -Iv 32 
r -t 0.891457050 -Hs 4 -Hd -1 -Ni 4 -Nx 250.00 -Ny 250.00 -Nz 0.00 -Ne -1.000000 -Nl RTR -Nw --- -Ma 0 -Md ffffffff -Ms 2 -Mt 800 -Is 2.255 -Id -1.255 -It message -Il 32 -If 0 -Ii 3 -Iv 32 
r -t 0.891457050 -Hs 5 -Hd -1 -Ni 5 -Nx 250.00 -Ny 250.00 -Nz 0.00 -Ne -1.000000 -Nl RTR -Nw --- -Ma 0 -Md ffffffff -Ms 2 -Mt 800 -Is 2.255 -Id -1.255 -It message -Il 32 -If 0 -Ii 3 -Iv 32 
r -t 0.891457065 -Hs 1 -Hd -1 -Ni 1 -Nx 246.68 -Ny 246.68 -Nz 0.00 -Ne -1.000000 -Nl RTR -Nw --- -Ma 0 -Md ffffffff -Ms 2 -Mt 800 -Is 2.255 -Id -1.255 -It message -Il 32 -If 0 -Ii 3 -Iv 32 
s -t 1.603497395 -Hs 3 -Hd -1 -Ni 3 -Nx 250.00 -Ny 250.00 -Nz 0.00 -Ne -1.000000 -Nl RTR -Nw --- -Ma 0 -Md 0 -Ms 0 -Mt 0 -Is 3.255 -Id -1.255 -It message -Il 32 -If 0 -Ii 4 -Iv 32 
s -t 1.603752395 -Hs 3 -Hd -1 -Ni 3 -Nx 250.00 -Ny 250.00 -Nz 0.00 -Ne -1.000000 -Nl MAC -Nw --- -Ma 0 -Md ffffffff -Ms 3 -Mt 800 -Is 3.255 -Id -1.255 -It message -Il 90 -If 0 -Ii 4 -Iv 32 
r -t 1.604472395 -Hs 2 -Hd -1 -Ni 2 -Nx 250.00 -Ny 250.00 -Nz 0.00 -Ne -1.000000 -Nl MAC -Nw --- -Ma 0 -Md ffffffff -Ms 3 -Mt 800 -Is 3.255 -Id -1.255 -It message -Il 32 -If 0 -Ii 4 -Iv 32 
r -t 1.604472395 -Hs 0 -Hd -1 -Ni 0 -Nx 250.00 -Ny 250.00 -Nz 0.00 -Ne -1.000000 -Nl MAC -Nw --- -Ma 0 -Md ffffffff -Ms 3 -Mt 800 -Is 3.255 -Id -1.255 -It message -Il 32 -If 0 -Ii 4 -Iv 32 
r -t 1.604472395 -Hs 4 -Hd -1 -Ni 4 -Nx 250.00 -Ny 250.00 -Nz 0.00 -Ne -1.000000 -Nl MAC -Nw --- -Ma 0 -Md ffffffff -Ms 3 -Mt 800 -Is 3.255 -Id -1.255 -It message -Il 32 -If 0 -Ii 4 -Iv 32 
r -t 1.604472395 -Hs 5 -Hd -1 -Ni 5 -Nx 250.00 -Ny 250.00 -Nz 0.00 -Ne -1.000000 -Nl MAC -Nw --- -Ma 0 -Md ffffffff -Ms 3 -Mt 800 -Is 3.255 -Id -1.255 -It message -Il 32 -If 0 -Ii 4 -Iv 32 
r -t 1.604472439 -Hs 1 -Hd -1 -Ni 1 -Nx 240.63 -Ny 240.63 -Nz 0.00 -Ne -1.000000 -Nl MAC -Nw --- -Ma 0 -Md ffffffff -Ms 3 -Mt 800 -Is 3.255 -Id -1.255 -It message -Il 32 -If 0 -Ii 4 -Iv 32 
r -t 1.604497395 -Hs 2 -Hd -1 -Ni 2 -Nx 250.00 -Ny 250.00 -Nz 0.00 -Ne -1.000000 -Nl RTR -Nw --- -Ma 0 -Md ffffffff -Ms 3 -Mt 800 -Is 3.255 -Id -1.255 -It message -Il 32 -If 0 -Ii 4 -Iv 32 
r -t 1.604497395 -Hs 0 -Hd -1 -Ni 0 -Nx 250.00 -Ny 250.00 -Nz 0.00 -Ne -1.000000 -Nl RTR -Nw --- -Ma 0 -Md ffffffff -Ms 3 -Mt 800 -Is 3.255 -Id -1.255 -It message -Il 32 -If 0 -Ii 4 -Iv 32 
r -t 1.604497395 -Hs 4 -Hd -1 -Ni 4 -Nx 250.00 -Ny 250.00 -Nz 0.00 -Ne -1.000000 -Nl RTR -Nw --- -Ma 0 -Md ffffffff -Ms 3 -Mt 800 -Is 3.255 -Id -1.255 -It message -Il 32 -If 0 -Ii 4 -Iv 32 
r -t 1.604497395 -Hs 5 -Hd -1 -Ni 5 -Nx 250.00 -Ny 250.00 -Nz 0.00 -Ne -1.000000 -Nl RTR -Nw --- -Ma 0 -Md ffffffff -Ms 3 -Mt 800 -Is 3.255 -Id -1.255 -It message -Il 32 -If 0 -Ii 4 -Iv 32 
r -t 1.604497439 -Hs 1 -Hd -1 -Ni 1 -Nx 240.63 -Ny 240.63 -Nz 0.00 -Ne -1.000000 -Nl RTR -Nw --- -Ma 0 -Md ffffffff -Ms 3 -Mt 800 -Is 3.255 -Id -1.255 -It message -Il 32 -If 0 -Ii 4 -Iv 32 
s -t 1.641350355 -Hs 5 -Hd -1 -Ni 5 -Nx 250.00 -Ny 250.00 -Nz 0.00 -Ne -1.000000 -Nl RTR -Nw --- -Ma 0 -Md 0 -Ms 0 -Mt 0 -Is 5.255 -Id -1.255 -It message -Il 32 -If 0 -Ii 5 -Iv 32 
s -t 1.641785355 -Hs 5 -Hd -1 -Ni 5 -Nx 250.00 -Ny 250.00 -Nz 0.00 -Ne -1.000000 -Nl MAC -Nw --- -Ma 0 -Md ffffffff -Ms 5 -Mt 800 -Is 5.255 -Id -1.255 -It message -Il 90 -If 0 -Ii 5 -Iv 32 
r -t 1.642505355 -Hs 4 -Hd -1 -Ni 4 -Nx 250.00 -Ny 250.00 -Nz 0.00 -Ne -1.000000 -Nl MAC -Nw --- -Ma 0 -Md ffffffff -Ms 5 -Mt 800 -Is 5.255 -Id -1.255 -It message -Il 32 -If 0 -Ii 5 -Iv 32 
r -t 1.642505355 -Hs 3 -Hd -1 -Ni 3 -Nx 250.00 -Ny 250.00 -Nz 0.00 -Ne -1.000000 -Nl MAC -Nw --- -Ma 0 -Md ffffffff -Ms 5 -Mt 800 -Is 5.255 -Id -1.255 -It message -Il 32 -If 0 -Ii 5 -Iv 32 
r -t 1.642505355 -Hs 2 -Hd -1 -Ni 2 -Nx 250.00 -Ny 250.00 -Nz 0.00 -Ne -1.000000 -Nl MAC -Nw --- -Ma 0 -Md ffffffff -Ms 5 -Mt 800 -Is 5.255 -Id -1.255 -It message -Il 32 -If 0 -Ii 5 -Iv 32 
r -t 1.642505355 -Hs 0 -Hd -1 -Ni 0 -Nx 250.00 -Ny 250.00 -Nz 0.00 -Ne -1.000000 -Nl MAC -Nw --- -Ma 0 -Md ffffffff -Ms 5 -Mt 800 -Is 5.255 -Id -1.255 -It message -Il 32 -If 0 -Ii 5 -Iv 32 
r -t 1.642505401 -Hs 1 -Hd -1 -Ni 1 -Nx 240.31 -Ny 240.31 -Nz 0.00 -Ne -1.000000 -Nl MAC -Nw --- -Ma 0 -Md ffffffff -Ms 5 -Mt 800 -Is 5.255 -Id -1.255 -It message -Il 32 -If 0 -Ii 5 -Iv 32 
r -t 1.642530355 -Hs 4 -Hd -1 -Ni 4 -Nx 250.00 -Ny 250.00 -Nz 0.00 -Ne -1.000000 -Nl RTR -Nw --- -Ma 0 -Md ffffffff -Ms 5 -Mt 800 -Is 5.255 -Id -1.255 -It message -Il 32 -If 0 -Ii 5 -Iv 32 
r -t 1.642530355 -Hs 3 -Hd -1 -Ni 3 -Nx 250.00 -Ny 250.00 -Nz 0.00 -Ne -1.000000 -Nl RTR -Nw --- -Ma 0 -Md ffffffff -Ms 5 -Mt 800 -Is 5.255 -Id -1.255 -It message -Il 32 -If 0 -Ii 5 -Iv 32 
r -t 1.642530355 -Hs 2 -Hd -1 -Ni 2 -Nx 250.00 -Ny 250.00 -Nz 0.00 -Ne -1.000000 -Nl RTR -Nw --- -Ma 0 -Md ffffffff -Ms 5 -Mt 800 -Is 5.255 -Id -1.255 -It message -Il 32 -If 0 -Ii 5 -Iv 32 
r -t 1.642530355 -Hs 0 -Hd -1 -Ni 0 -Nx 250.00 -Ny 250.00 -Nz 0.00 -Ne -1.000000 -Nl RTR -Nw --- -Ma 0 -Md ffffffff -Ms 5 -Mt 800 -Is 5.255 -Id -1.255 -It message -Il 32 -If 0 -Ii 5 -Iv 32 
r -t 1.642530401 -Hs 1 -Hd -1 -Ni 1 -Nx 240.31 -Ny 240.31 -Nz 0.00 -Ne -1.000000 -Nl RTR -Nw --- -Ma 0 -Md ffffffff -Ms 5 -Mt 800 -Is 5.255 -Id -1.255 -It message -Il 32 -If 0 -Ii 5 -Iv 32 
M 10.00000 2 (250.00, 250.00, 0.00), (50.00, 50.00), 27.00
s -t 10.000000000 -Hs 0 -Hd -2 -Ni 0 -Nx 250.00 -Ny 250.00 -Nz 0.00 -Ne -1.000000 -Nl AGT -Nw --- -Ma 0 -Md 0 -Ms 0 -Mt 0 -Is 0.0 -Id 3.0 -It tcp -Il 40 -If 1 -Ii 6 -Iv 32 -Pn tcp -Ps 0 -Pa 0 -Pf 0 -Po 0 
r -t 10.000000000 -Hs 0 -Hd -2 -Ni 0 -Nx 250.00 -Ny 250.00 -Nz 0.00 -Ne -1.000000 -Nl RTR -Nw --- -Ma 0 -Md 0 -Ms 0 -Mt 0 -Is 0.0 -Id 3.0 -It tcp -Il 40 -If 1 -Ii 6 -Iv 32 -Pn tcp -Ps 0 -Pa 0 -Pf 0 -Po 0 
s -t 10.000000000 -Hs 0 -Hd 3 -Ni 0 -Nx 250.00 -Ny 250.00 -Nz 0.00 -Ne -1.000000 -Nl RTR -Nw --- -Ma 0 -Md 0 -Ms 0 -Mt 0 -Is 0.0 -Id 3.0 -It tcp -Il 60 -If 1 -Ii 6 -Iv 32 -Pn tcp -Ps 0 -Pa 0 -Pf 0 -Po 0 
s -t 10.000355000 -Hs 0 -Hd -2 -Ni 0 -Nx 250.00 -Ny 250.00 -Nz 0.00 -Ne -1.000000 -Nl MAC -Nw --- -Ma 0 -Md ffffffff -Ms 0 -Mt 806 -P arp -Po REQUEST -Pms 0 -Ps 0 -Pmd 0 -Pd 3 
r -t 10.001043000 -Hs 3 -Hd -2 -Ni 3 -Nx 250.00 -Ny 250.00 -Nz 0.00 -Ne -1.000000 -Nl MAC -Nw --- -Ma 0 -Md ffffffff -Ms 0 -Mt 806 -P arp -Po REQUEST -Pms 0 -Ps 0 -Pmd 0 -Pd 3 
r -t 10.001043000 -Hs 4 -Hd -2 -Ni 4 -Nx 250.00 -Ny 250.00 -Nz 0.00 -Ne -1.000000 -Nl MAC -Nw --- -Ma 0 -Md ffffffff -Ms 0 -Mt 806 -P arp -Po REQUEST -Pms 0 -Ps 0 -Pmd 0 -Pd 3 
r -t 10.001043000 -Hs 5 -Hd -2 -Ni 5 -Nx 250.00 -Ny 250.00 -Nz 0.00 -Ne -1.000000 -Nl MAC -Nw --- -Ma 0 -Md ffffffff -Ms 0 -Mt 806 -P arp -Po REQUEST -Pms 0 -Ps 0 -Pmd 0 -Pd 3 
r -t 10.001043000 -Hs 2 -Hd -2 -Ni 2 -Nx 249.98 -Ny 249.98 -Nz 0.00 -Ne -1.000000 -Nl MAC -Nw --- -Ma 0 -Md ffffffff -Ms 0 -Mt 806 -P arp -Po REQUEST -Pms 0 -Ps 0 -Pmd 0 -Pd 3 
r -t 10.001043380 -Hs 1 -Hd -2 -Ni 1 -Nx 169.38 -Ny 169.38 -Nz 0.00 -Ne -1.000000 -Nl MAC -Nw --- -Ma 0 -Md ffffffff -Ms 0 -Mt 806 -P arp -Po REQUEST -Pms 0 -Ps 0 -Pmd 0 -Pd 3 
s -t 10.001238000 -Hs 3 -Hd -2 -Ni 3 -Nx 250.00 -Ny 250.00 -Nz 0.00 -Ne -1.000000 -Nl MAC -Nw --- -Ma 52e -Md 0 -Ms 3 -Mt 0 
r -t 10.001590000 -Hs 0 -Hd -2 -Ni 0 -Nx 250.00 -Ny 250.00 -Nz 0.00 -Ne -1.000000 -Nl MAC -Nw --- -Ma 52e -Md 0 -Ms 3 -Mt 0 
s -t 10.001600000 -Hs 0 -Hd -2 -Ni 0 -Nx 250.00 -Ny 250.00 -Nz 0.00 -Ne -1.000000 -Nl MAC -Nw --- -Ma 3f4 -Md 3 -Ms 0 -Mt 0 
r -t 10.001904000 -Hs 3 -Hd -2 -Ni 3 -Nx 250.00 -Ny 250.00 -Nz 0.00 -Ne -1.000000 -Nl MAC -Nw --- -Ma 3f4 -Md 3 -Ms 0 -Mt 0 
s -t 10.001914000 -Hs 3 -Hd -2 -Ni 3 -Nx 250.00 -Ny 250.00 -Nz 0.00 -Ne -1.000000 -Nl MAC -Nw --- -Ma 13a -Md 0 -Ms 3 -Mt 806 -P arp -Po REPLY -Pms 3 -Ps 3 -Pmd 0 -Pd 0 
r -t 10.002602000 -Hs 0 -Hd -2 -Ni 0 -Nx 250.00 -Ny 250.00 -Nz 0.00 -Ne -1.000000 -Nl MAC -Nw --- -Ma 13a -Md 0 -Ms 3 -Mt 806 -P arp -Po REPLY -Pms 3 -Ps 3 -Pmd 0 -Pd 0 
s -t 10.002612000 -Hs 0 -Hd -2 -Ni 0 -Nx 250.00 -Ny 250.00 -Nz 0.00 -Ne -1.000000 -Nl MAC -Nw --- -Ma 0 -Md 3 -Ms 0 -Mt 0 
r -t 10.002916000 -Hs 3 -Hd -2 -Ni 3 -Nx 250.00 -Ny 250.00 -Nz 0.00 -Ne -1.000000 -Nl MAC -Nw --- -Ma 0 -Md 3 -Ms 0 -Mt 0 
s -t 10.003186000 -Hs 0 -Hd -2 -Ni 0 -Nx 250.00 -Ny 250.00 -Nz 0.00 -Ne -1.000000 -Nl MAC -Nw --- -Ma 62e -Md 3 -Ms 0 -Mt 0 
r -t 10.003538000 -Hs 3 -Hd -2 -Ni 3 -Nx 250.00 -Ny 250.00 -Nz 0.00 -Ne -1.000000 -Nl MAC -Nw --- -Ma 62e -Md 3 -Ms 0 -Mt 0 
s -t 10.003548000 -Hs 3 -Hd -2 -Ni 3 -Nx 250.00 -Ny 250.00 -Nz 0.00 -Ne -1.000000 -Nl MAC -Nw --- -Ma 4f4 -Md 0 -Ms 0 -Mt 0 
r -t 10.003852000 -Hs 0 -Hd -2 -Ni 0 -Nx 250.00 -Ny 250.00 -Nz 0.00 -Ne -1.000000 -Nl MAC -Nw --- -Ma 4f4 -Md 0 -Ms 0 -Mt 0 
s -t 10.003862000 -Hs 0 -Hd 3 -Ni 0 -Nx 250.00 -Ny 250.00 -Nz 0.00 -Ne -1.000000 -Nl MAC -Nw --- -Ma 13a -Md 3 -Ms 0 -Mt 800 -Is 0.0 -Id 3.0 -It tcp -Il 118 -If 1 -Ii 6 -Iv 32 -Pn tcp -Ps 0 -Pa 0 -Pf 0 -Po 0 
r -t 10.004806000 -Hs 3 -Hd 3 -Ni 3 -Nx 250.00 -Ny 250.00 -Nz 0.00 -Ne -1.000000 -Nl MAC -Nw --- -Ma 13a -Md 3 -Ms 0 -Mt 800 -Is 0.0 -Id 3.0 -It tcp -Il 60 -If 1 -Ii 6 -Iv 32 -Pn tcp -Ps 0 -Pa 0 -Pf 1 -Po 0 
s -t 10.004816000 -Hs 3 -Hd -2 -Ni 3 -Nx 250.00 -Ny 250.00 -Nz 0.00 -Ne -1.000000 -Nl MAC -Nw --- -Ma 0 -Md 0 -Ms 0 -Mt 0 
r -t 10.004831000 -Hs 3 -Hd 3 -Ni 3 -Nx 250.00 -Ny 250.00 -Nz 0.00 -Ne -1.000000 -Nl AGT -Nw --- -Ma 13a -Md 3 -Ms 0 -Mt 800 -Is 0.0 -Id 3.0 -It tcp -Il 60 -If 1 -Ii 6 -Iv 32 -Pn tcp -Ps 0 -Pa 0 -Pf 1 -Po 0 
s -t 10.004831000 -Hs 3 -Hd -2 -Ni 3 -Nx 250.00 -Ny 250.00 -Nz 0.00 -Ne -1.000000 -Nl AGT -Nw --- -Ma 0 -Md 0 -Ms 0 -Mt 0 -Is 3.0 -Id 0.0 -It ack -Il 40 -If 1 -Ii 7 -Iv 32 -Pn tcp -Ps 0 -Pa 0 -Pf 0 -Po 0 
r -t 10.004831000 -Hs 3 -Hd -2 -Ni 3 -Nx 250.00 -Ny 250.00 -Nz 0.00 -Ne -1.000000 -Nl RTR -Nw --- -Ma 0 -Md 0 -Ms 0 -Mt 0 -Is 3.0 -Id 0.0 -It ack -Il 40 -If 1 -Ii 7 -Iv 32 -Pn tcp -Ps 0 -Pa 0 -Pf 0 -Po 0 
s -t 10.004831000 -Hs 3 -Hd 0 -Ni 3 -Nx 250.00 -Ny 250.00 -Nz 0.00 -Ne -1.000000 -Nl RTR -Nw --- -Ma 0 -Md 0 -Ms 0 -Mt 0 -Is 3.0 -Id 0.0 -It ack -Il 60 -If 1 -Ii 7 -Iv 32 -Pn tcp -Ps 0 -Pa 0 -Pf 0 -Po 0 
r -t 10.005120000 -Hs 0 -Hd -2 -Ni 0 -Nx 250.00 -Ny 250.00 -Nz 0.00 -Ne -1.000000 -Nl MAC -Nw --- -Ma 0 -Md 0 -Ms 0 -Mt 0 
s -t 10.005450000 -Hs 3 -Hd -2 -Ni 3 -Nx 250.00 -Ny 250.00 -Nz 0.00 -Ne -1.000000 -Nl MAC -Nw --- -Ma 62e -Md 0 -Ms 3 -Mt 0 
r -t 10.005802000 -Hs 0 -Hd -2 -Ni 0 -Nx 250.00 -Ny 250.00 -Nz 0.00 -Ne -1.000000 -Nl MAC -Nw --- -Ma 62e -Md 0 -Ms 3 -Mt 0 
s -t 10.005812000 -Hs 0 -Hd -2 -Ni 0 -Nx 250.00 -Ny 250.00 -Nz 0.00 -Ne -1.000000 -Nl MAC -Nw --- -Ma 4f4 -Md 3 -Ms 0 -Mt 0 
r -t 10.006116000 -Hs 3 -Hd -2 -Ni 3 -Nx 250.00 -Ny 250.00 -Nz 0.00 -Ne -1.000000 -Nl MAC -Nw --- -Ma 4f4 -Md 3 -Ms 0 -Mt 0 
s -t 10.006126000 -Hs 3 -Hd 0 -Ni 3 -Nx 250.00 -Ny 250.00 -Nz 0.00 -Ne -1.000000 -Nl MAC -Nw --- -Ma 13a -Md 0 -Ms 3 -Mt 800 -Is 3.0 -Id 0.0 -It ack -Il 118 -If 1 -Ii 7 -Iv 32 -Pn tcp -Ps 0 -Pa 0 -Pf 0 -Po 0 
r -t 10.007070000 -Hs 0 -Hd 0 -Ni 0 -Nx 250.00 -Ny 250.00 -Nz 0.00 -Ne -1.000000 -Nl MAC -Nw --- -Ma 13a -Md 0 -Ms 3 -Mt 800 -Is 3.0 -Id 0.0 -It ack -Il 60 -If 1 -Ii 7 -Iv 32 -Pn tcp -Ps 0 -Pa 0 -Pf 1 -Po 0 
s -t 10.007080000 -Hs 0 -Hd -2 -Ni 0 -Nx 250.00 -Ny 250.00 -Nz 0.00 -Ne -1.000000 -Nl MAC -Nw --- -Ma 0 -Md 3 -Ms 0 -Mt 0 
r -t 10.007095000 -Hs 0 -Hd 0 -Ni 0 -Nx 250.00 -Ny 250.00 -Nz 0.00 -Ne -1.000000 -Nl AGT -Nw --- -Ma 13a -Md 0 -Ms 3 -Mt 800 -Is 3.0 -Id 0.0 -It ack -Il 60 -If 1 -Ii 7 -Iv 32 -Pn tcp -Ps 0 -Pa 0 -Pf 1 -Po 0 
s -t 10.007095000 -Hs 0 -Hd -2 -Ni 0 -Nx 250.00 -Ny 250.00 -Nz 0.00 -Ne -1.000000 -Nl AGT -Nw --- -Ma 0 -Md 0 -Ms 0 -Mt 0 -Is 0.0 -Id 3.0 -It tcp -Il 1040 -If 1 -Ii 8 -Iv 32 -Pn tcp -Ps 1 -Pa 0 -Pf 0 -Po 0 
r -t 10.007095000 -Hs 0 -Hd -2 -Ni 0 -Nx 250.00 -Ny 250.00 -Nz 0.00 -Ne -1.000000 -Nl RTR -Nw --- -Ma 0 -Md 0 -Ms 0 -Mt 0 -Is 0.0 -Id 3.0 -It tcp -Il 1040 -If 1 -Ii 8 -Iv 32 -Pn tcp -Ps 1 -Pa 0 -Pf 0 -Po 0 
s -t 10.007095000 -Hs 0 -Hd 3 -Ni 0 -Nx 250.00 -Ny 250.00 -Nz 0.00 -Ne -1.000000 -Nl RTR -Nw --- -Ma 0 -Md 0 -Ms 0 -Mt 0 -Is 0.0 -Id 3.0 -It tcp -Il 1060 -If 1 -Ii 8 -Iv 32 -Pn tcp -Ps 1 -Pa 0 -Pf 0 -Po 0 
s -t 10.007095000 -Hs 0 -Hd -2 -Ni 0 -Nx 250.00 -Ny 250.00 -Nz 0.00 -Ne -1.000000 -Nl AGT -Nw --- -Ma 0 -Md 0 -Ms 0 -Mt 0 -Is 0.0 -Id 3.0 -It tcp -Il 1040 -If 1 -Ii 9 -Iv 32 -Pn tcp -Ps 2 -Pa 0 -Pf 0 -Po 0 
r -t 10.007095000 -Hs 0 -Hd -2 -Ni 0 -Nx 250.00 -Ny 250.00 -Nz 0.00 -Ne -1.000000 -Nl RTR -Nw --- -Ma 0 -Md 0 -Ms 0 -Mt 0 -Is 0.0 -Id 3.0 -It tcp -Il 1040 -If 1 -Ii 9 -Iv 32 -Pn tcp -Ps 2 -Pa 0 -Pf 0 -Po 0 
s -t 10.007095000 -Hs 0 -Hd 3 -Ni 0 -Nx 250.00 -Ny 250.00 -Nz 0.00 -Ne -1.000000 -Nl RTR -Nw --- -Ma 0 -Md 0 -Ms 0 -Mt 0 -Is 0.0 -Id 3.0 -It tcp -Il 1060 -If 1 -Ii 9 -Iv 32 -Pn tcp -Ps 2 -Pa 0 -Pf 0 -Po 0 
r -t 10.007384000 -Hs 3 -Hd -2 -Ni 3 -Nx 250.00 -Ny 250.00 -Nz 0.00 -Ne -1.000000 -Nl MAC -Nw --- -Ma 0 -Md 3 -Ms 0 -Mt 0 
s -t 10.007534000 -Hs 0 -Hd -2 -Ni 0 -Nx 250.00 -Ny 250.00 -Nz 0.00 -Ne -1.000000 -Nl MAC -Nw --- -Ma 256e -Md 3 -Ms 0 -Mt 0 
r -t 10.007886000 -Hs 3 -Hd -2 -Ni 3 -Nx 250.00 -Ny 250.00 -Nz 0.00 -Ne -1.000000 -Nl MAC -Nw --- -Ma 256e -Md 3 -Ms 0 -Mt 0 
s -t 10.007896000 -Hs 3 -Hd -2 -Ni 3 -Nx 250.00 -Ny 250.00 -Nz 0.00 -Ne -1.000000 -Nl MAC -Nw --- -Ma 2434 -Md 0 -Ms 0 -Mt 0 
r -t 10.008200000 -Hs 0 -Hd -2 -Ni 0 -Nx 250.00 -Ny 250.00 -Nz 0.00 -Ne -1.000000 -Nl MAC -Nw --- -Ma 2434 -Md 0 -Ms 0 -Mt 0 
s -t 10.008210000 -Hs 0 -Hd 3 -Ni 0 -Nx 250.00 -Ny 250.00 -Nz 0.00 -Ne -1.000000 -Nl MAC -Nw --- -Ma 13a -Md 3 -Ms 0 -Mt 800 -Is 0.0 -Id 3.0 -It tcp -Il 1118 -If 1 -Ii 8 -Iv 32 -Pn tcp -Ps 1 -Pa 0 -Pf 0 -Po 0 
r -t 10.017154000 -Hs 3 -Hd 3 -Ni 3 -Nx 250.00 -Ny 250.00 -Nz 0.00 -Ne -1.000000 -Nl MAC -Nw --- -Ma 13a -Md 3 -Ms 0 -Mt 800 -Is 0.0 -Id 3.0 -It tcp -Il 1060 -If 1 -Ii 8 -Iv 32 -Pn tcp -Ps 1 -Pa 0 -Pf 1 -Po 0 
s -t 10.017164000 -Hs 3 -Hd -2 -Ni 3 -Nx 250.00 -Ny 250.00 -Nz 0.00 -Ne -1.000000 -Nl MAC -Nw --- -Ma 0 -Md 0 -Ms 0 -Mt 0 
r -t 10.017179000 -Hs 3 -Hd 3 -Ni 3 -Nx 250.00 -Ny 250.00 -Nz 0.00 -Ne -1.000000 -Nl AGT -Nw --- -Ma 13a -Md 3 -Ms 0 -Mt 800 -Is 0.0 -Id 3.0 -It tcp -Il 1060 -If 1 -Ii 8 -Iv 32 -Pn tcp -Ps 1 -Pa 0 -Pf 1 -Po 0 
s -t 10.017179000 -Hs 3 -Hd -2 -Ni 3 -Nx 250.00 -Ny 250.00 -Nz 0.00 -Ne -1.000000 -Nl AGT -Nw --- -Ma 0 -Md 0 -Ms 0 -Mt 0 -Is 3.0 -Id 0.0 -It ack -Il 40 -If 1 -Ii 10 -Iv 32 -Pn tcp -Ps 1 -Pa 0 -Pf 0 -Po 0 
r -t 10.017179000 -Hs 3 -Hd -2 -Ni 3 -Nx 250.00 -Ny 250.00 -Nz 0.00 -Ne -1.000000 -Nl RTR -Nw --- -Ma 0 -Md 0 -Ms 0 -Mt 0 -Is 3.0 -Id 0.0 -It ack -Il 40 -If 1 -Ii 10 -Iv 32 -Pn tcp -Ps 1 -Pa 0 -Pf 0 -Po 0 
s -t 10.017179000 -Hs 3 -Hd 0 -Ni 3 -Nx 250.00 -Ny 250.00 -Nz 0.00 -Ne -1.000000 -Nl RTR -Nw --- -Ma 0 -Md 0 -Ms 0 -Mt 0 -Is 3.0 -Id 0.0 -It ack -Il 60 -If 1 -Ii 10 -Iv 32 -Pn tcp -Ps 1 -Pa 0 -Pf 0 -Po 0 
r -t 10.017468000 -Hs 0 -Hd -2 -Ni 0 -Nx 250.00 -Ny 250.00 -Nz 0.00 -Ne -1.000000 -Nl MAC -Nw --- -Ma 0 -Md 0 -Ms 0 -Mt 0 
s -t 10.017738000 -Hs 0 -Hd -2 -Ni 0 -Nx 250.00 -Ny 250.00 -Nz 0.00 -Ne -1.000000 -Nl MAC -Nw --- -Ma 256e -Md 3 -Ms 0 -Mt 0 
r -t 10.018090000 -Hs 3 -Hd -2 -Ni 3 -Nx 250.00 -Ny 250.00 -Nz 0.00 -Ne -1.000000 -Nl MAC -Nw --- -Ma 256e -Md 3 -Ms 0 -Mt 0 
s -t 10.018100000 -Hs 3 -Hd -2 -Ni 3 -Nx 250.00 -Ny 250.00 -Nz 0.00 -Ne -1.000000 -Nl MAC -Nw --- -Ma 2434 -Md 0 -Ms 0 -Mt 0 
r -t 10.018404000 -Hs 0 -Hd -2 -Ni 0 -Nx 250.00 -Ny 250.00 -Nz 0.00 -Ne -1.000000 -Nl MAC -Nw --- -Ma 2434 -Md 0 -Ms 0 -Mt 0 
s -t 10.018414000 -Hs 0 -Hd 3 -Ni 0 -Nx 250.00 -Ny 250.00 -Nz 0.00 -Ne -1.000000 -Nl MAC -Nw --- -Ma 13a -Md 3 -Ms 0 -Mt 800 -Is 0.0 -Id 3.0 -It tcp -Il 1118 -If 1 -Ii 9 -Iv 32 -Pn tcp -Ps 2 -Pa 0 -Pf 0 -Po 0 
r -t 10.027358000 -Hs 3 -Hd 3 -Ni 3 -Nx 250.00 -Ny 250.00 -Nz 0.00 -Ne -1.000000 -Nl MAC -Nw --- -Ma 13a -Md 3 -Ms 0 -Mt 800 -Is 0.0 -Id 3.0 -It tcp -Il 1060 -If 1 -Ii 9 -Iv 32 -Pn tcp -Ps 2 -Pa 0 -Pf 1 -Po 0 
s -t 10.027368000 -Hs 3 -Hd -2 -Ni 3 -Nx 250.00 -Ny 250.00 -Nz 0.00 -Ne -1.000000 -Nl MAC -Nw --- -Ma 0 -Md 0 -Ms 0 -Mt 0 
r -t 10.027383000 -Hs 3 -Hd 3 -Ni 3 -Nx 250.00 -Ny 250.00 -Nz 0.00 -Ne -1.000000 -Nl AGT -Nw --- -Ma 13a -Md 3 -Ms 0 -Mt 800 -Is 0.0 -Id 3.0 -It tcp -Il 1060 -If 1 -Ii 9 -Iv 32 -Pn tcp -Ps 2 -Pa 0 -Pf 1 -Po 0 
s -t 10.027383000 -Hs 3 -Hd -2 -Ni 3 -Nx 250.00 -Ny 250.00 -Nz 0.00 -Ne -1.000000 -Nl AGT -Nw --- -Ma 0 -Md 0 -Ms 0 -Mt 0 -Is 3.0 -Id 0.0 -It ack -Il 40 -If 1 -Ii 11 -Iv 32 -Pn tcp -Ps 2 -Pa 0 -Pf 0 -Po 0 
r -t 10.027383000 -Hs 3 -Hd -2 -Ni 3 -Nx 250.00 -Ny 250.00 -Nz 0.00 -Ne -1.000000 -Nl RTR -Nw --- -Ma 0 -Md 0 -Ms 0 -Mt 0 -Is 3.0 -Id 0.0 -It ack -Il 40 -If 1 -Ii 11 -Iv 32 -Pn tcp -Ps 2 -Pa 0 -Pf 0 -Po 0 
s -t 10.027383000 -Hs 3 -Hd 0 -Ni 3 -Nx 250.00 -Ny 250.00 -Nz 0.00 -Ne -1.000000 -Nl RTR -Nw --- -Ma 0 -Md 0 -Ms 0 -Mt 0 -Is 3.0 -Id 0.0 -It ack -Il 60 -If 1 -Ii 11 -Iv 32 -Pn tcp -Ps 2 -Pa 0 -Pf 0 -Po 0 
r -t 10.027672000 -Hs 0 -Hd -2 -Ni 0 -Nx 250.00 -Ny 250.00 -Nz 0.00 -Ne -1.000000 -Nl MAC -Nw --- -Ma 0 -Md 0 -Ms 0 -Mt 0 
s -t 10.027942000 -Hs 3 -Hd -2 -Ni 3 -Nx 250.00 -Ny 250.00 -Nz 0.00 -Ne -1.000000 -Nl MAC -Nw --- -Ma 62e -Md 0 -Ms 3 -Mt 0 
r -t 10.028294000 -Hs 0 -Hd -2 -Ni 0 -Nx 250.00 -Ny 250.00 -Nz 0.00 -Ne -1.000000 -Nl MAC -Nw --- -Ma 62e -Md 0 -Ms 3 -Mt 0 
s -t 10.028304000 -Hs 0 -Hd -2 -Ni 0 -Nx 250.00 -Ny 250.00 -Nz 0.00 -Ne -1.000000 -Nl MAC -Nw --- -Ma 4f4 -Md 3 -Ms 0 -Mt 0 
r -t 10.028608000 -Hs 3 -Hd -2 -Ni 3 -Nx 250.00 -Ny 250.00 -Nz 0.00 -Ne -1.000000 -Nl MAC -Nw --- -Ma 4f4 -Md 3 -Ms 0 -Mt 0 
s -t 10.028618000 -Hs 3 -Hd 0 -Ni 3 -Nx 250.00 -Ny 250.00 -Nz 0.00 -Ne -1.000000 -Nl MAC -Nw --- -Ma 13a -Md 0 -Ms 3 -Mt 800 -Is 3.0 -Id 0.0 -It ack -Il 118 -If 1 -Ii 10 -Iv 32 -Pn tcp -Ps 1 -Pa 0 -Pf 0 -Po 0 
r -t 10.029562000 -Hs 0 -Hd 0 -Ni 0 -Nx 250.00 -Ny 250.00 -Nz 0.00 -Ne -1.000000 -Nl MAC -Nw --- -Ma 13a -Md 0 -Ms 3 -Mt 800 -Is 3.0 -Id 0.0 -It ack -Il 60 -If 1 -Ii 10 -Iv 32 -Pn tcp -Ps 1 -Pa 0 -Pf 1 -Po 0 
s -t 10.029572000 -Hs 0 -Hd -2 -Ni 0 -Nx 250.00 -Ny 250.00 -Nz 0.00 -Ne -1.000000 -Nl MAC -Nw --- -Ma 0 -Md 3 -Ms 0 -Mt 0 
r -t 10.029587000 -Hs 0 -Hd 0 -Ni 0 -Nx 250.00 -Ny 250.00 -Nz 0.00 -Ne -1.000000 -Nl AGT -Nw --- -Ma 13a -Md 0 -Ms 3 -Mt 800 -Is 3.0 -Id 0.0 -It ack -Il 60 -If 1 -Ii 10 -Iv 32 -Pn tcp -Ps 1 -Pa 0 -Pf 1 -Po 0 
s -t 10.029587000 -Hs 0 -Hd -2 -Ni 0 -Nx 250.00 -Ny 250.00 -Nz 0.00 -Ne -1.000000 -Nl AGT -Nw --- -Ma 0 -Md 0 -Ms 0 -Mt 0 -Is 0.0 -Id 3.0 -It tcp -Il 1040 -If 1 -Ii 12 -Iv 32 -Pn tcp -Ps 3 -Pa 0 -Pf 0 -Po 0 
r -t 10.029587000 -Hs 0 -Hd -2 -Ni 0 -Nx 250.00 -Ny 250.00 -Nz 0.00 -Ne -1.000000 -Nl RTR -Nw --- -Ma 0 -Md 0 -Ms 0 -Mt 0 -Is 0.0 -Id 3.0 -It tcp -Il 1040 -If 1 -Ii 12 -Iv 32 -Pn tcp -Ps 3 -Pa 0 -Pf 0 -Po 0 
s -t 10.029587000 -Hs 0 -Hd 3 -Ni 0 -Nx 250.00 -Ny 250.00 -Nz 0.00 -Ne -1.000000 -Nl RTR -Nw --- -Ma 0 -Md 0 -Ms 0 -Mt 0 -Is 0.0 -Id 3.0 -It tcp -Il 1060 -If 1 -Ii 12 -Iv 32 -Pn tcp -Ps 3 -Pa 0 -Pf 0 -Po 0 
s -t 10.029587000 -Hs 0 -Hd -2 -Ni 0 -Nx 250.00 -Ny 250.00 -Nz 0.00 -Ne -1.000000 -Nl AGT -Nw --- -Ma 0 -Md 0 -Ms 0 -Mt 0 -Is 0.0 -Id 3.0 -It tcp -Il 1040 -If 1 -Ii 13 -Iv 32 -Pn tcp -Ps 4 -Pa 0 -Pf 0 -Po 0 
r -t 10.029587000 -Hs 0 -Hd -2 -Ni 0 -Nx 250.00 -Ny 250.00 -Nz 0.00 -Ne -1.000000 -Nl RTR -Nw --- -Ma 0 -Md 0 -Ms 0 -Mt 0 -Is 0.0 -Id 3.0 -It tcp -Il 1040 -If 1 -Ii 13 -Iv 32 -Pn tcp -Ps 4 -Pa 0 -Pf 0 -Po 0 
s -t 10.029587000 -Hs 0 -Hd 3 -Ni 0 -Nx 250.00 -Ny 250.00 -Nz 0.00 -Ne -1.000000 -Nl RTR -Nw --- -Ma 0 -Md 0 -Ms 0 -Mt 0 -Is 0.0 -Id 3.0 -It tcp -Il 1060 -If 1 -Ii 13 -Iv 32 -Pn tcp -Ps 4 -Pa 0 -Pf 0 -Po 0 
r -t 10.029876000 -Hs 3 -Hd -2 -Ni 3 -Nx 250.00 -Ny 250.00 -Nz 0.00 -Ne -1.000000 -Nl MAC -Nw --- -Ma 0 -Md 3 -Ms 0 -Mt 0 
s -t 10.029986000 -Hs 3 -Hd -2 -Ni 3 -Nx 250.00 -Ny 250.00 -Nz 0.00 -Ne -1.000000 -Nl MAC -Nw --- -Ma 62e -Md 0 -Ms 3 -Mt 0 
r -t 10.030338000 -Hs 0 -Hd -2 -Ni 0 -Nx 250.00 -Ny 250.00 -Nz 0.00 -Ne -1.000000 -Nl MAC -Nw --- -Ma 62e -Md 0 -Ms 3 -Mt 0 
s -t 10.030348000 -Hs 0 -Hd -2 -Ni 0 -Nx 250.00 -Ny 250.00 -Nz 0.00 -Ne -1.000000 -Nl MAC -Nw --- -Ma 4f4 -Md 3 -Ms 0 -Mt 0 
r -t 10.030652000 -Hs 3 -Hd -2 -Ni 3 -Nx 250.00 -Ny 250.00 -Nz 0.00 -Ne -1.000000 -Nl MAC -Nw --- -Ma 4f4 -Md 3 -Ms 0 -Mt 0 
s -t 10.030662000 -Hs 3 -Hd 0 -Ni 3 -Nx 250.00 -Ny 250.00 -Nz 0.00 -Ne -1.000000 -Nl MAC -Nw --- -Ma 13a -Md 0 -Ms 3 -Mt 800 -Is 3.0 -Id 0.0 -It ack -Il 118 -If 1 -Ii 11 -Iv 32 -Pn tcp -Ps 2 -Pa 0 -Pf 0 -Po 0 
r -t 10.031606000 -Hs 0 -Hd 0 -Ni 0 -Nx 250.00 -Ny 250.00 -Nz 0.00 -Ne -1.000000 -Nl MAC -Nw --- -Ma 13a -Md 0 -Ms 3 -Mt 800 -Is 3.0 -Id 0.0 -It ack -Il 60 -If 1 -Ii 11 -Iv 32 -Pn tcp -Ps 2 -Pa 0 -Pf 1 -Po 0 
s -t 10.031616000 -Hs 0 -Hd -2 -Ni 0 -Nx 250.00 -Ny 250.00 -Nz 0.00 -Ne -1.000000 -Nl MAC -Nw --- -Ma 0 -Md 3 -Ms 0 -Mt 0 
r -t 10.031631000 -Hs 0 -Hd 0 -Ni 0 -Nx 250.00 -Ny 250.00 -Nz 0.00 -Ne -1.000000 -Nl AGT -Nw --- -Ma 13a -Md 0 -Ms 3 -Mt 800 -Is 3.0 -Id 0.0 -It ack -Il 60 -If 1 -Ii 11 -Iv 32 -Pn tcp -Ps 2 -Pa 0 -Pf 1 -Po 0 
s -t 10.031631000 -Hs 0 -Hd -2 -Ni 0 -Nx 250.00 -Ny 250.00 -Nz 0.00 -Ne -1.000000 -Nl AGT -Nw --- -Ma 0 -Md 0 -Ms 0 -Mt 0 -Is 0.0 -Id 3.0 -It tcp -Il 1040 -If 1 -Ii 14 -Iv 32 -Pn tcp -Ps 5 -Pa 0 -Pf 0 -Po 0 
r -t 10.031631000 -Hs 0 -Hd -2 -Ni 0 -Nx 250.00 -Ny 250.00 -Nz 0.00 -Ne -1.000000 -Nl RTR -Nw --- -Ma 0 -Md 0 -Ms 0 -Mt 0 -Is 0.0 -Id 3.0 -It tcp -Il 1040 -If 1 -Ii 14 -Iv 32 -Pn tcp -Ps 5 -Pa 0 -Pf 0 -Po 0 
s -t 10.031631000 -Hs 0 -Hd 3 -Ni 0 -Nx 250.00 -Ny 250.00 -Nz 0.00 -Ne -1.000000 -Nl RTR -Nw --- -Ma 0 -Md 0 -Ms 0 -Mt 0 -Is 0.0 -Id 3.0 -It tcp -Il 1060 -If 1 -Ii 14 -Iv 32 -Pn tcp -Ps 5 -Pa 0 -Pf 0 -Po 0 
s -t 10.031631000 -Hs 0 -Hd -2 -Ni 0 -Nx 250.00 -Ny 250.00 -Nz 0.00 -Ne -1.000000 -Nl AGT -Nw --- -Ma 0 -Md 0 -Ms 0 -Mt 0 -Is 0.0 -Id 3.0 -It tcp -Il 1040 -If 1 -Ii 15 -Iv 32 -Pn tcp -Ps 6 -Pa 0 -Pf 0 -Po 0 