n -t * -s 0  -x 250 -y 250 -Z 0 -z 20  -v circle -c black
n -t * -s 1  -x 250 -y 250 -Z 0 -z 20  -v circle -c black
n -t * -s 2  -x 250 -y 250 -Z 0 -z 20  -v circle -c black
n -t * -s 3  -x 250 -y 250 -Z 0 -z 20  -v circle -c black
n -t * -s 4  -x 250 -y 250 -Z 0 -z 20  -v circle -c black
n -t * -s 5  -x 250 -y 250 -Z 0 -z 20  -v circle -c black
V -t * -v 1.0a5 -a 0
W -t * -x 500 -y 500
A -t * -n 1 -p 0 -o 0x7fffffff -c 30 -a 1
A -t * -h 1 -m 1073741823 -s 0
c -t * -i 1 -n Blue
c -t * -i 2 -n Red
+ -t 0.030755339 -s 0 -d -1 -p message -e 32 -c 2 -a 0 -i 0 -k RTR 
- -t 0.030755339 -s 0 -d -1 -p message -e 32 -c 2 -a 0 -i 0 -k RTR
h -t 0.030755339 -s 0 -d -1 -p message -e 32 -c 2 -a 0 -i 0 -k RTR
+ -t 0.031090339 -s 0 -d -1 -p message -e 90 -c 2 -a 0 -i 0 -k MAC 
- -t 0.031090339 -s 0 -d -1 -p message -e 90 -c 2 -a 0 -i 0 -k MAC
h -t 0.031090339 -s 0 -d -1 -p message -e 90 -c 2 -a 0 -i 0 -k MAC
r -t 0.031810339 -s 1 -d -1 -p message -e 32 -c 2 -a 0 -i 0 -k MAC
r -t 0.031810339 -s 2 -d -1 -p message -e 32 -c 2 -a 0 -i 0 -k MAC
r -t 0.031810339 -s 3 -d -1 -p message -e 32 -c 2 -a 0 -i 0 -k MAC
r -t 0.031810339 -s 4 -d -1 -p message -e 32 -c 2 -a 0 -i 0 -k MAC
r -t 0.031810339 -s 5 -d -1 -p message -e 32 -c 2 -a 0 -i 0 -k MAC
r -t 0.031835339 -s 1 -d -1 -p message -e 32 -c 2 -a 0 -i 0 -k RTR
r -t 0.031835339 -s 2 -d -1 -p message -e 32 -c 2 -a 0 -i 0 -k RTR
r -t 0.031835339 -s 3 -d -1 -p message -e 32 -c 2 -a 0 -i 0 -k RTR
r -t 0.031835339 -s 4 -d -1 -p message -e 32 -c 2 -a 0 -i 0 -k RTR
r -t 0.031835339 -s 5 -d -1 -p message -e 32 -c 2 -a 0 -i 0 -k RTR
+ -t 0.177886797 -s 1 -d -1 -p message -e 32 -c 2 -a 0 -i 1 -k RTR 
- -t 0.177886797 -s 1 -d -1 -p message -e 32 -c 2 -a 0 -i 1 -k RTR
h -t 0.177886797 -s 1 -d -1 -p message -e 32 -c 2 -a 0 -i 1 -k RTR
+ -t 0.178121797 -s 1 -d -1 -p message -e 90 -c 2 -a 0 -i 1 -k MAC 
- -t 0.178121797 -s 1 -d -1 -p message -e 90 -c 2 -a 0 -i 1 -k MAC
h -t 0.178121797 -s 1 -d -1 -p message -e 90 -c 2 -a 0 -i 1 -k MAC
r -t 0.178841797 -s 0 -d -1 -p message -e 32 -c 2 -a 0 -i 1 -k MAC
r -t 0.178841797 -s 2 -d -1 -p message -e 32 -c 2 -a 0 -i 1 -k MAC
r -t 0.178841797 -s 3 -d -1 -p message -e 32 -c 2 -a 0 -i 1 -k MAC
r -t 0.178841797 -s 4 -d -1 -p message -e 32 -c 2 -a 0 -i 1 -k MAC
r -t 0.178841797 -s 5 -d -1 -p message -e 32 -c 2 -a 0 -i 1 -k MAC
r -t 0.178866797 -s 0 -d -1 -p message -e 32 -c 2 -a 0 -i 1 -k RTR
r -t 0.178866797 -s 2 -d -1 -p message -e 32 -c 2 -a 0 -i 1 -k RTR
r -t 0.178866797 -s 3 -d -1 -p message -e 32 -c 2 -a 0 -i 1 -k RTR
r -t 0.178866797 -s 4 -d -1 -p message -e 32 -c 2 -a 0 -i 1 -k RTR
r -t 0.178866797 -s 5 -d -1 -p message -e 32 -c 2 -a 0 -i 1 -k RTR
n -t 0.500000 -s 1 -x 250.000000 -y 250.000000 -U -8.485281 -V -8.485281 -T 26.280802
+ -t 0.634520820 -s 4 -d -1 -p message -e 32 -c 2 -a 0 -i 2 -k RTR 
- -t 0.634520820 -s 4 -d -1 -p message -e 32 -c 2 -a 0 -i 2 -k RTR
h -t 0.634520820 -s 4 -d -1 -p message -e 32 -c 2 -a 0 -i 2 -k RTR
+ -t 0.635075820 -s 4 -d -1 -p message -e 90 -c 2 -a 0 -i 2 -k MAC 
- -t 0.635075820 -s 4 -d -1 -p message -e 90 -c 2 -a 0 -i 2 -k MAC
h -t 0.635075820 -s 4 -d -1 -p message -e 90 -c 2 -a 0 -i 2 -k MAC
r -t 0.635795820 -s 3 -d -1 -p message -e 32 -c 2 -a 0 -i 2 -k MAC
r -t 0.635795820 -s 2 -d -1 -p message -e 32 -c 2 -a 0 -i 2 -k MAC
r -t 0.635795820 -s 0 -d -1 -p message -e 32 -c 2 -a 0 -i 2 -k MAC
r -t 0.635795820 -s 5 -d -1 -p message -e 32 -c 2 -a 0 -i 2 -k MAC
r -t 0.635795826 -s 1 -d -1 -p message -e 32 -c 2 -a 0 -i 2 -k MAC
r -t 0.635820820 -s 3 -d -1 -p message -e 32 -c 2 -a 0 -i 2 -k RTR
r -t 0.635820820 -s 2 -d -1 -p message -e 32 -c 2 -a 0 -i 2 -k RTR
r -t 0.635820820 -s 0 -d -1 -p message -e 32 -c 2 -a 0 -i 2 -k RTR
r -t 0.635820820 -s 5 -d -1 -p message -e 32 -c 2 -a 0 -i 2 -k RTR
r -t 0.635820826 -s 1 -d -1 -p message -e 32 -c 2 -a 0 -i 2 -k RTR
+ -t 0.890417050 -s 2 -d -1 -p message -e 32 -c 2 -a 0 -i 3 -k RTR 
- -t 0.890417050 -s 2 -d -1 -p message -e 32 -c 2 -a 0 -i 3 -k RTR
h -t 0.890417050 -s 2 -d -1 -p message -e 32 -c 2 -a 0 -i 3 -k RTR
+ -t 0.890712050 -s 2 -d -1 -p message -e 90 -c 2 -a 0 -i 3 -k MAC 
- -t 0.890712050 -s 2 -d -1 -p message -e 90 -c 2 -a 0 -i 3 -k MAC
h -t 0.890712050 -s 2 -d -1 -p message -e 90 -c 2 -a 0 -i 3 -k MAC
r -t 0.891432050 -s 0 -d -1 -p message -e 32 -c 2 -a 0 -i 3 -k MAC
r -t 0.891432050 -s 3 -d -1 -p message -e 32 -c 2 -a 0 -i 3 -k MAC
r -t 0.891432050 -s 4 -d -1 -p message -e 32 -c 2 -a 0 -i 3 -k MAC
r -t 0.891432050 -s 5 -d -1 -p message -e 32 -c 2 -a 0 -i 3 -k MAC
r -t 0.891432065 -s 1 -d -1 -p message -e 32 -c 2 -a 0 -i 3 -k MAC
r -t 0.891457050 -s 0 -d -1 -p message -e 32 -c 2 -a 0 -i 3 -k RTR
r -t 0.891457050 -s 3 -d -1 -p message -e 32 -c 2 -a 0 -i 3 -k RTR
r -t 0.891457050 -s 4 -d -1 -p message -e 32 -c 2 -a 0 -i 3 -k RTR
r -t 0.891457050 -s 5 -d -1 -p message -e 32 -c 2 -a 0 -i 3 -k RTR
r -t 0.891457065 -s 1 -d -1 -p message -e 32 -c 2 -a 0 -i 3 -k RTR
+ -t 1.603497395 -s 3 -d -1 -p message -e 32 -c 2 -a 0 -i 4 -k RTR 
- -t 1.603497395 -s 3 -d -1 -p message -e 32 -c 2 -a 0 -i 4 -k RTR
h -t 1.603497395 -s 3 -d -1 -p message -e 32 -c 2 -a 0 -i 4 -k RTR
+ -t 1.603752395 -s 3 -d -1 -p message -e 90 -c 2 -a 0 -i 4 -k MAC 
- -t 1.603752395 -s 3 -d -1 -p message -e 90 -c 2 -a 0 -i 4 -k MAC
h -t 1.603752395 -s 3 -d -1 -p message -e 90 -c 2 -a 0 -i 4 -k MAC
r -t 1.604472395 -s 2 -d -1 -p message -e 32 -c 2 -a 0 -i 4 -k MAC
r -t 1.604472395 -s 0 -d -1 -p message -e 32 -c 2 -a 0 -i 4 -k MAC
r -t 1.604472395 -s 4 -d -1 -p message -e 32 -c 2 -a 0 -i 4 -k MAC
r -t 1.604472395 -s 5 -d -1 -p message -e 32 -c 2 -a 0 -i 4 -k MAC
r -t 1.604472439 -s 1 -d -1 -p message -e 32 -c 2 -a 0 -i 4 -k MAC
r -t 1.604497395 -s 2 -d -1 -p message -e 32 -c 2 -a 0 -i 4 -k RTR
r -t 1.604497395 -s 0 -d -1 -p message -e 32 -c 2 -a 0 -i 4 -k RTR
r -t 1.604497395 -s 4 -d -1 -p message -e 32 -c 2 -a 0 -i 4 -k RTR
r -t 1.604497395 -s 5 -d -1 -p message -e 32 -c 2 -a 0 -i 4 -k RTR
r -t 1.604497439 -s 1 -d -1 -p message -e 32 -c 2 -a 0 -i 4 -k RTR
+ -t 1.641350355 -s 5 -d -1 -p message -e 32 -c 2 -a 0 -i 5 -k RTR 
- -t 1.641350355 -s 5 -d -1 -p message -e 32 -c 2 -a 0 -i 5 -k RTR
h -t 1.641350355 -s 5 -d -1 -p message -e 32 -c 2 -a 0 -i 5 -k RTR
+ -t 1.641785355 -s 5 -d -1 -p message -e 90 -c 2 -a 0 -i 5 -k MAC 
- -t 1.641785355 -s 5 -d -1 -p message -e 90 -c 2 -a 0 -i 5 -k MAC
h -t 1.641785355 -s 5 -d -1 -p message -e 90 -c 2 -a 0 -i 5 -k MAC
r -t 1.642505355 -s 4 -d -1 -p message -e 32 -c 2 -a 0 -i 5 -k MAC
r -t 1.642505355 -s 3 -d -1 -p message -e 32 -c 2 -a 0 -i 5 -k MAC
r -t 1.642505355 -s 2 -d -1 -p message -e 32 -c 2 -a 0 -i 5 -k MAC
r -t 1.642505355 -s 0 -d -1 -p message -e 32 -c 2 -a 0 -i 5 -k MAC
r -t 1.642505401 -s 1 -d -1 -p message -e 32 -c 2 -a 0 -i 5 -k MAC
r -t 1.642530355 -s 4 -d -1 -p message -e 32 -c 2 -a 0 -i 5 -k RTR
r -t 1.642530355 -s 3 -d -1 -p message -e 32 -c 2 -a 0 -i 5 -k RTR
r -t 1.642530355 -s 2 -d -1 -p message -e 32 -c 2 -a 0 -i 5 -k RTR
r -t 1.642530355 -s 0 -d -1 -p message -e 32 -c 2 -a 0 -i 5 -k RTR
r -t 1.642530401 -s 1 -d -1 -p message -e 32 -c 2 -a 0 -i 5 -k RTR
n -t 10.000000 -s 2 -x 250.000000 -y 250.000000 -U -19.091883 -V -19.091883 -T 10.475656
+ -t 10.000000000 -s 0 -d -1 -p tcp -e 40 -c 2 -a 0 -i 6 -k AGT 
- -t 10.000000000 -s 0 -d -1 -p tcp -e 40 -c 2 -a 0 -i 6 -k AGT
h -t 10.000000000 -s 0 -d -1 -p tcp -e 40 -c 2 -a 0 -i 6 -k AGT
+ -t 10.000000000 -s 0 -d 3 -p tcp -e 60 -c 2 -a 0 -i 6 -k RTR 
- -t 10.000000000 -s 0 -d 3 -p tcp -e 60 -c 2 -a 0 -i 6 -k RTR
h -t 10.000000000 -s 0 -d 3 -p tcp -e 60 -c 2 -a 0 -i 6 -k RTR
+ -t 10.000355000 -s 0 -d -1 -p ARP -e 86 -c 2 -a 0 -i 0 -k MAC 
- -t 10.000355000 -s 0 -d -1 -p ARP -e 86 -c 2 -a 0 -i 0 -k MAC
h -t 10.000355000 -s 0 -d -1 -p ARP -e 86 -c 2 -a 0 -i 0 -k MAC
r -t 10.001043000 -s 3 -d -1 -p ARP -e 28 -c 2 -a 0 -i 0 -k MAC
r -t 10.001043000 -s 4 -d -1 -p ARP -e 28 -c 2 -a 0 -i 0 -k MAC
r -t 10.001043000 -s 5 -d -1 -p ARP -e 28 -c 2 -a 0 -i 0 -k MAC
r -t 10.001043000 -s 2 -d -1 -p ARP -e 28 -c 2 -a 0 -i 0 -k MAC
r -t 10.001043380 -s 1 -d -1 -p ARP -e 28 -c 2 -a 0 -i 0 -k MAC
+ -t 10.001238000 -s 3 -d -1 -p RTS -e 44 -c 2 -a 0 -i 0 -k MAC 
- -t 10.001238000 -s 3 -d -1 -p RTS -e 44 -c 2 -a 0 -i 0 -k MAC
h -t 10.001238000 -s 3 -d -1 -p RTS -e 44 -c 2 -a 0 -i 0 -k MAC
r -t 10.001590000 -s 0 -d -1 -p RTS -e 44 -c 2 -a 0 -i 0 -k MAC
+ -t 10.001600000 -s 0 -d -1 -p CTS -e 38 -c 2 -a 0 -i 0 -k MAC 
- -t 10.001600000 -s 0 -d -1 -p CTS -e 38 -c 2 -a 0 -i 0 -k MAC
h -t 10.001600000 -s 0 -d -1 -p CTS -e 38 -c 2 -a 0 -i 0 -k MAC
r -t 10.001904000 -s 3 -d -1 -p CTS -e 38 -c 2 -a 0 -i 0 -k MAC
+ -t 10.001914000 -s 3 -d -1 -p ARP -e 86 -c 2 -a 0 -i 0 -k MAC 
- -t 10.001914000 -s 3 -d -1 -p ARP -e 86 -c 2 -a 0 -i 0 -k MAC
h -t 10.001914000 -s 3 -d -1 -p ARP -e 86 -c 2 -a 0 -i 0 -k MAC
r -t 10.002602000 -s 0 -d -1 -p ARP -e 28 -c 2 -a 0 -i 0 -k MAC
+ -t 10.002612000 -s 0 -d -1 -p ACK -e 38 -c 2 -a 0 -i 0 -k MAC 
- -t 10.002612000 -s 0 -d -1 -p ACK -e 38 -c 2 -a 0 -i 0 -k MAC
h -t 10.002612000 -s 0 -d -1 -p ACK -e 38 -c 2 -a 0 -i 0 -k MAC
r -t 10.002916000 -s 3 -d -1 -p ACK -e 38 -c 2 -a 0 -i 0 -k MAC
+ -t 10.003186000 -s 0 -d -1 -p RTS -e 44 -c 2 -a 0 -i 0 -k MAC 
- -t 10.003186000 -s 0 -d -1 -p RTS -e 44 -c 2 -a 0 -i 0 -k MAC
h -t 10.003186000 -s 0 -d -1 -p RTS -e 44 -c 2 -a 0 -i 0 -k MAC
r -t 10.003538000 -s 3 -d -1 -p RTS -e 44 -c 2 -a 0 -i 0 -k MAC
+ -t 10.003548000 -s 3 -d -1 -p CTS -e 38 -c 2 -a 0 -i 0 -k MAC 
- -t 10.003548000 -s 3 -d -1 -p CTS -e 38 -c 2 -a 0 -i 0 -k MAC
h -t 10.003548000 -s 3 -d -1 -p CTS -e 38 -c 2 -a 0 -i 0 -k MAC
r -t 10.003852000 -s 0 -d -1 -p CTS -e 38 -c 2 -a 0 -i 0 -k MAC
+ -t 10.003862000 -s 0 -d 3 -p tcp -e 118 -c 2 -a 0 -i 6 -k MAC 
- -t 10.003862000 -s 0 -d 3 -p tcp -e 118 -c 2 -a 0 -i 6 -k MAC
h -t 10.003862000 -s 0 -d 3 -p tcp -e 118 -c 2 -a 0 -i 6 -k MAC
r -t 10.004806000 -s 3 -d 3 -p tcp -e 60 -c 2 -a 0 -i 6 -k MAC
+ -t 10.004816000 -s 3 -d -1 -p ACK -e 38 -c 2 -a 0 -i 0 -k MAC 
- -t 10.004816000 -s 3 -d -1 -p ACK -e 38 -c 2 -a 0 -i 0 -k MAC
h -t 10.004816000 -s 3 -d -1 -p ACK -e 38 -c 2 -a 0 -i 0 -k MAC
r -t 10.004831000 -s 3 -d 3 -p tcp -e 60 -c 2 -a 0 -i 6 -k AGT
+ -t 10.004831000 -s 3 -d -1 -p ack -e 40 -c 2 -a 0 -i 7 -k AGT 
- -t 10.004831000 -s 3 -d -1 -p ack -e 40 -c 2 -a 0 -i 7 -k AGT
h -t 10.004831000 -s 3 -d -1 -p ack -e 40 -c 2 -a 0 -i 7 -k AGT
+ -t 10.004831000 -s 3 -d 0 -p ack -e 60 -c 2 -a 0 -i 7 -k RTR 
- -t 10.004831000 -s 3 -d 0 -p ack -e 60 -c 2 -a 0 -i 7 -k RTR
h -t 10.004831000 -s 3 -d 0 -p ack -e 60 -c 2 -a 0 -i 7 -k RTR
r -t 10.005120000 -s 0 -d -1 -p ACK -e 38 -c 2 -a 0 -i 0 -k MAC
+ -t 10.005450000 -s 3 -d -1 -p RTS -e 44 -c 2 -a 0 -i 0 -k MAC 
- -t 10.005450000 -s 3 -d -1 -p RTS -e 44 -c 2 -a 0 -i 0 -k MAC
h -t 10.005450000 -s 3 -d -1 -p RTS -e 44 -c 2 -a 0 -i 0 -k MAC
r -t 10.005802000 -s 0 -d -1 -p RTS -e 44 -c 2 -a 0 -i 0 -k MAC
+ -t 10.005812000 -s 0 -d -1 -p CTS -e 38 -c 2 -a 0 -i 0 -k MAC 
- -t 10.005812000 -s 0 -d -1 -p CTS -e 38 -c 2 -a 0 -i 0 -k MAC
h -t 10.005812000 -s 0 -d -1 -p CTS -e 38 -c 2 -a 0 -i 0 -k MAC
r -t 10.006116000 -s 3 -d -1 -p CTS -e 38 -c 2 -a 0 -i 0 -k MAC
+ -t 10.006126000 -s 3 -d 0 -p ack -e 118 -c 2 -a 0 -i 7 -k MAC 
- -t 10.006126000 -s 3 -d 0 -p ack -e 118 -c 2 -a 0 -i 7 -k MAC
h -t 10.006126000 -s 3 -d 0 -p ack -e 118 -c 2 -a 0 -i 7 -k MAC
r -t 10.007070000 -s 0 -d 0 -p ack -e 60 -c 2 -a 0 -i 7 -k MAC
+ -t 10.007080000 -s 0 -d -1 -p ACK -e 38 -c 2 -a 0 -i 0 -k MAC 
- -t 10.007080000 -s 0 -d -1 -p ACK -e 38 -c 2 -a 0 -i 0 -k MAC
h -t 10.007080000 -s 0 -d -1 -p ACK -e 38 -c 2 -a 0 -i 0 -k MAC
r -t 10.007095000 -s 0 -d 0 -p ack -e 60 -c 2 -a 0 -i 7 -k AGT
+ -t 10.007095000 -s 0 -d -1 -p tcp -e 1040 -c 2 -a 0 -i 8 -k AGT 
- -t 10.007095000 -s 0 -d -1 -p tcp -e 1040 -c 2 -a 0 -i 8 -k AGT
h -t 10.007095000 -s 0 -d -1 -p tcp -e 1040 -c 2 -a 0 -i 8 -k AGT
+ -t 10.007095000 -s 0 -d 3 -p tcp -e 1060 -c 2 -a 0 -i 8 -k RTR 
- -t 10.007095000 -s 0 -d 3 -p tcp -e 1060 -c 2 -a 0 -i 8 -k RTR
h -t 10.007095000 -s 0 -d 3 -p tcp -e 1060 -c 2 -a 0 -i 8 -k RTR
+ -t 10.007095000 -s 0 -d -1 -p tcp -e 1040 -c 2 -a 0 -i 9 -k AGT 
- -t 10.007095000 -s 0 -d -1 -p tcp -e 1040 -c 2 -a 0 -i 9 -k AGT
h -t 10.007095000 -s 0 -d -1 -p tcp -e 1040 -c 2 -a 0 -i 9 -k AGT
+ -t 10.007095000 -s 0 -d 3 -p tcp -e 1060 -c 2 -a 0 -i 9 -k RTR 
- -t 10.007095000 -s 0 -d 3 -p tcp -e 1060 -c 2 -a 0 -i 9 -k RTR
h -t 10.007095000 -s 0 -d 3 -p tcp -e 1060 -c 2 -a 0 -i 9 -k RTR
r -t 10.007384000 -s 3 -d -1 -p ACK -e 38 -c 2 -a 0 -i 0 -k MAC
+ -t 10.007534000 -s 0 -d -1 -p RTS -e 44 -c 2 -a 0 -i 0 -k MAC 
- -t 10.007534000 -s 0 -d -1 -p RTS -e 44 -c 2 -a 0 -i 0 -k MAC
h -t 10.007534000 -s 0 -d -1 -p RTS -e 44 -c 2 -a 0 -i 0 -k MAC
r -t 10.007886000 -s 3 -d -1 -p RTS -e 44 -c 2 -a 0 -i 0 -k MAC
+ -t 10.007896000 -s 3 -d -1 -p CTS -e 38 -c 2 -a 0 -i 0 -k MAC 
- -t 10.007896000 -s 3 -d -1 -p CTS -e 38 -c 2 -a 0 -i 0 -k MAC
h -t 10.007896000 -s 3 -d -1 -p CTS -e 38 -c 2 -a 0 -i 0 -k MAC
r -t 10.008200000 -s 0 -d -1 -p CTS -e 38 -c 2 -a 0 -i 0 -k MAC
+ -t 10.008210000 -s 0 -d 3 -p tcp -e 1118 -c 2 -a 0 -i 8 -k MAC 
- -t 10.008210000 -s 0 -d 3 -p tcp -e 1118 -c 2 -a 0 -i 8 -k MAC
h -t 10.008210000 -s 0 -d 3 -p tcp -e 1118 -c 2 -a 0 -i 8 -k MAC
r -t 10.017154000 -s 3 -d 3 -p tcp -e 1060 -c 2 -a 0 -i 8 -k MAC
+ -t 10.017164000 -s 3 -d -1 -p ACK -e 38 -c 2 -a 0 -i 0 -k MAC 
- -t 10.017164000 -s 3 -d -1 -p ACK -e 38 -c 2 -a 0 -i 0 -k MAC
h -t 10.017164000 -s 3 -d -1 -p ACK -e 38 -c 2 -a 0 -i 0 -k MAC
r -t 10.017179000 -s 3 -d 3 -p tcp -e 1060 -c 2 -a 0 -i 8 -k AGT
+ -t 10.017179000 -s 3 -d -1 -p ack -e 40 -c 2 -a 0 -i 10 -k AGT 
- -t 10.017179000 -s 3 -d -1 -p ack -e 40 -c 2 -a 0 -i 10 -k AGT
h -t 10.017179000 -s 3 -d -1 -p ack -e 40 -c 2 -a 0 -i 10 -k AGT
+ -t 10.017179000 -s 3 -d 0 -p ack -e 60 -c 2 -a 0 -i 10 -k RTR 
- -t 10.017179000 -s 3 -d 0 -p ack -e 60 -c 2 -a 0 -i 10 -k RTR
h -t 10.017179000 -s 3 -d 0 -p ack -e 60 -c 2 -a 0 -i 10 -k RTR
r -t 10.017468000 -s 0 -d -1 -p ACK -e 38 -c 2 -a 0 -i 0 -k MAC
+ -t 10.017738000 -s 0 -d -1 -p RTS -e 44 -c 2 -a 0 -i 0 -k MAC 
- -t 10.017738000 -s 0 -d -1 -p RTS -e 44 -c 2 -a 0 -i 0 -k MAC
h -t 10.017738000 -s 0 -d -1 -p RTS -e 44 -c 2 -a 0 -i 0 -k MAC
r -t 10.018090000 -s 3 -d -1 -p RTS -e 44 -c 2 -a 0 -i 0 -k MAC
+ -t 10.018100000 -s 3 -d -1 -p CTS -e 38 -c 2 -a 0 -i 0 -k MAC 
- -t 10.018100000 -s 3 -d -1 -p CTS -e 38 -c 2 -a 0 -i 0 -k MAC
h -t 10.018100000 -s 3 -d -1 -p CTS -e 38 -c 2 -a 0 -i 0 -k MAC
r -t 10.018404000 -s 0 -d -1 -p CTS -e 38 -c 2 -a 0 -i 0 -k MAC
+ -t 10.018414000 -s 0 -d 3 -p tcp -e 1118 -c 2 -a 0 -i 9 -k MAC 
- -t 10.018414000 -s 0 -d 3 -p tcp -e 1118 -c 2 -a 0 -i 9 -k MAC
h -t 10.018414000 -s 0 -d 3 -p tcp -e 1118 -c 2 -a 0 -i 9 -k MAC
r -t 10.027358000 -s 3 -d 3 -p tcp -e 1060 -c 2 -a 0 -i 9 -k MAC
+ -t 10.027368000 -s 3 -d -1 -p ACK -e 38 -c 2 -a 0 -i 0 -k MAC 
- -t 10.027368000 -s 3 -d -1 -p ACK -e 38 -c 2 -a 0 -i 0 -k MAC
h -t 10.027368000 -s 3 -d -1 -p ACK -e 38 -c 2 -a 0 -i 0 -k MAC
r -t 10.027383000 -s 3 -d 3 -p tcp -e 1060 -c 2 -a 0 -i 9 -k AGT
+ -t 10.027383000 -s 3 -d -1 -p ack -e 40 -c 2 -a 0 -i 11 -k AGT 
- -t 10.027383000 -s 3 -d -1 -p ack -e 40 -c 2 -a 0 -i 11 -k AGT
h -t 10.027383000 -s 3 -d -1 -p ack -e 40 -c 2 -a 0 -i 11 -k AGT
+ -t 10.027383000 -s 3 -d 0 -p ack -e 60 -c 2 -a 0 -i 11 -k RTR 
- -t 10.027383000 -s 3 -d 0 -p ack -e 60 -c 2 -a 0 -i 11 -k RTR
h -t 10.027383000 -s 3 -d 0 -p ack -e 60 -c 2 -a 0 -i 11 -k RTR
r -t 10.027672000 -s 0 -d -1 -p ACK -e 38 -c 2 -a 0 -i 0 -k MAC
+ -t 10.027942000 -s 3 -d -1 -p RTS -e 44 -c 2 -a 0 -i 0 -k MAC 
- -t 10.027942000 -s 3 -d -1 -p RTS -e 44 -c 2 -a 0 -i 0 -k MAC
h -t 10.027942000 -s 3 -d -1 -p RTS -e 44 -c 2 -a 0 -i 0 -k MAC
r -t 10.028294000 -s 0 -d -1 -p RTS -e 44 -c 2 -a 0 -i 0 -k MAC
+ -t 10.028304000 -s 0 -d -1 -p CTS -e 38 -c 2 -a 0 -i 0 -k MAC 
- -t 10.028304000 -s 0 -d -1 -p CTS -e 38 -c 2 -a 0 -i 0 -k MAC
h -t 10.028304000 -s 0 -d -1 -p CTS -e 38 -c 2 -a 0 -i 0 -k MAC
r -t 10.028608000 -s 3 -d -1 -p CTS -e 38 -c 2 -a 0 -i 0 -k MAC
+ -t 10.028618000 -s 3 -d 0 -p ack -e 118 -c 2 -a 0 -i 10 -k MAC 
- -t 10.028618000 -s 3 -d 0 -p ack -e 118 -c 2 -a 0 -i 10 -k MAC
h -t 10.028618000 -s 3 -d 0 -p ack -e 118 -c 2 -a 0 -i 10 -k MAC
r -t 10.029562000 -s 0 -d 0 -p ack -e 60 -c 2 -a 0 -i 10 -k MAC
+ -t 10.029572000 -s 0 -d -1 -p ACK -e 38 -c 2 -a 0 -i 0 -k MAC 
- -t 10.029572000 -s 0 -d -1 -p ACK -e 38 -c 2 -a 0 -i 0 -k MAC
h -t 10.029572000 -s 0 -d -1 -p ACK -e 38 -c 2 -a 0 -i 0 -k MAC
r -t 10.029587000 -s 0 -d 0 -p ack -e 60 -c 2 -a 0 -i 10 -k AGT
+ -t 10.029587000 -s 0 -d -1 -p tcp -e 1040 -c 2 -a 0 -i 12 -k AGT 
- -t 10.029587000 -s 0 -d -1 -p tcp -e 1040 -c 2 -a 0 -i 12 -k AGT
h -t 10.029587000 -s 0 -d -1 -p tcp -e 1040 -c 2 -a 0 -i 12 -k AGT
+ -t 10.029587000 -s 0 -d 3 -p tcp -e 1060 -c 2 -a 0 -i 12 -k RTR 
- -t 10.029587000 -s 0 -d 3 -p tcp -e 1060 -c 2 -a 0 -i 12 -k RTR
h -t 10.029587000 -s 0 -d 3 -p tcp -e 1060 -c 2 -a 0 -i 12 -k RTR
+ -t 10.029587000 -s 0 -d -1 -p tcp -e 1040 -c 2 -a 0 -i 13 -k AGT 
- -t 10.029587000 -s 0 -d -1 -p tcp -e 1040 -c 2 -a 0 -i 13 -k AGT
h -t 10.029587000 -s 0 -d -1 -p tcp -e 1040 -c 2 -a 0 -i 13 -k AGT
+ -t 10.029587000 -s 0 -d 3 -p tcp -e 1060 -c 2 -a 0 -i 13 -k RTR 
- -t 10.029587000 -s 0 -d 3 -p tcp -e 1060 -c 2 -a 0 -i 13 -k RTR
h -t 10.029587000 -s 0 -d 3 -p tcp -e 1060 -c 2 -a 0 -i 13 -k RTR
r -t 10.029876000 -s 3 -d -1 -p ACK -e 38 -c 2 -a 0 -i 0 -k MAC
+ -t 10.029986000 -s 3 -d -1 -p RTS -e 44 -c 2 -a 0 -i 0 -k MAC 
- -t 10.029986000 -s 3 -d -1 -p RTS -e 44 -c 2 -a 0 -i 0 -k MAC
h -t 10.029986000 -s 3 -d -1 -p RTS -e 44 -c 2 -a 0 -i 0 -k MAC
r -t 10.030338000 -s 0 -d -1 -p RTS -e 44 -c 2 -a 0 -i 0 -k MAC
+ -t 10.030348000 -s 0 -d -1 -p CTS -e 38 -c 2 -a 0 -i 0 -k MAC 
- -t 10.030348000 -s 0 -d -1 -p CTS -e 38 -c 2 -a 0 -i 0 -k MAC
h -t 10.030348000 -s 0 -d -1 -p CTS -e 38 -c 2 -a 0 -i 0 -k MAC
r -t 10.030652000 -s 3 -d -1 -p CTS -e 38 -c 2 -a 0 -i 0 -k MAC
+ -t 10.030662000 -s 3 -d 0 -p ack -e 118 -c 2 -a 0 -i 11 -k MAC 
- -t 10.030662000 -s 3 -d 0 -p ack -e 118 -c 2 -a 0 -i 11 -k MAC
h -t 10.030662000 -s 3 -d 0 -p ack -e 118 -c 2 -a 0 -i 11 -k MAC
r -t 10.031606000 -s 0 -d 0 -p ack -e 60 -c 2 -a 0 -i 11 -k MAC
+ -t 10.031616000 -s 0 -d -1 -p ACK -e 38 -c 2 -a 0 -i 0 -k MAC 
- -t 10.031616000 -s 0 -d -1 -p ACK -e 38 -c 2 -a 0 -i 0 -k MAC
h -t 10.031616000 -s 0 -d -1 -p ACK -e 38 -c 2 -a 0 -i 0 -k MAC
r -t 10.031631000 -s 0 -d 0 -p ack -e 60 -c 2 -a 0 -i 11 -k AGT
+ -t 10.031631000 -s 0 -d -1 -p tcp -e 1040 -c 2 -a 0 -i 14 -k AGT 
- -t 10.031631000 -s 0 -d -1 -p tcp -e 1040 -c 2 -a 0 -i 14 -k AGT
h -t 10.031631000 -s 0 -d -1 -p tcp -e 1040 -c 2 -a 0 -i 14 -k AGT
+ -t 10.031631000 -s 0 -d 3 -p tcp -e 1060 -c 2 -a 0 -i 14 -k RTR 
- -t 10.031631000 -s 0 -d 3 -p tcp -e 1060 -c 2 -a 0 -i 14 -k RTR
h -t 10.031631000 -s 0 -d 3 -p tcp -e 1060 -c 2 -a 0 -i 14 -k RTR
+ -t 10.031631000 -s 0 -d -1 -p tcp -e 1040 -c 2 -a 0 -i 15 -k AGT 
- -t 10.031631000 -s 0 -d -1 -p tcp -e 1040 -c 2 -a 0 -i 15 -k AGT
h -t 10.031631000 -s 0 -d -1 -p tcp -e 1040 -c 2 -a 0 -i 15 -k AGT
+ -t 10.031631000 -s 0 -d 3 -p tcp -e 1060 -c 2 -a 0 -i 15 -k RTR 
- -t 10.031631000 -s 0 -d 3 -p tcp -e 1060 -c 2 -a 0 -i 15 -k RTR
h -t 10.031631000 -s 0 -d 3 -p tcp -e 1060 -c 2 -a 0 -i 15 -k RTR
r -t 10.031920000 -s 3 -d -1 -p ACK -e 38 -c 2 -a 0 -i 0 -k MAC
+ -t 10.032510000 -s 0 -d -1 -p RTS -e 44 -c 2 -a 0 -i 0 -k MAC 
- -t 10.032510000 -s 0 -d -1 -p RTS -e 44 -c 2 -a 0 -i 0 -k MAC
h -t 10.032510000 -s 0 -d -1 -p RTS -e 44 -c 2 -a 0 -i 0 -k MAC
r -t 10.032862000 -s 3 -d -1 -p RTS -e 44 -c 2 -a 0 -i 0 -k MAC
+ -t 10.032872000 -s 3 -d -1 -p CTS -e 38 -c 2 -a 0 -i 0 -k MAC 
- -t 10.032872000 -s 3 -d -1 -p CTS -e 38 -c 2 -a 0 -i 0 -k MAC
h -t 10.032872000 -s 3 -d -1 -p CTS -e 38 -c 2 -a 0 -i 0 -k MAC
r -t 10.033176000 -s 0 -d -1 -p CTS -e 38 -c 2 -a 0 -i 0 -k MAC
+ -t 10.033186000 -s 0 -d 3 -p tcp -e 1118 -c 2 -a 0 -i 12 -k MAC 
- -t 10.033186000 -s 0 -d 3 -p tcp -e 1118 -c 2 -a 0 -i 12 -k MAC
h -t 10.033186000 -s 0 -d 3 -p tcp -e 1118 -c 2 -a 0 -i 12 -k MAC
r -t 10.042130000 -s 3 -d 3 -p tcp -e 1060 -c 2 -a 0 -i 12 -k MAC
+ -t 10.042140000 -s 3 -d -1 -p ACK -e 38 -c 2 -a 0 -i 0 -k MAC 
- -t 10.042140000 -s 3 -d -1 -p ACK -e 38 -c 2 -a 0 -i 0 -k MAC
h -t 10.042140000 -s 3 -d -1 -p ACK -e 38 -c 2 -a 0 -i 0 -k MAC
r -t 10.042155000 -s 3 -d 3 -p tcp -e 1060 -c 2 -a 0 -i 12 -k AGT
+ -t 10.042155000 -s 3 -d -1 -p ack -e 40 -c 2 -a 0 -i 16 -k AGT 
- -t 10.042155000 -s 3 -d -1 -p ack -e 40 -c 2 -a 0 -i 16 -k AGT
h -t 10.042155000 -s 3 -d -1 -p ack -e 40 -c 2 -a 0 -i 16 -k AGT
+ -t 10.042155000 -s 3 -d 0 -p ack -e 60 -c 2 -a 0 -i 16 -k RTR 
- -t 10.042155000 -s 3 -d 0 -p ack -e 60 -c 2 -a 0 -i 16 -k RTR
h -t 10.042155000 -s 3 -d 0 -p ack -e 60 -c 2 -a 0 -i 16 -k RTR
r -t 10.042444000 -s 0 -d -1 -p ACK -e 38 -c 2 -a 0 -i 0 -k MAC
+ -t 10.042834000 -s 3 -d -1 -p RTS -e 44 -c 2 -a 0 -i 0 -k MAC 
- -t 10.042834000 -s 3 -d -1 -p RTS -e 44 -c 2 -a 0 -i 0 -k MAC
h -t 10.042834000 -s 3 -d -1 -p RTS -e 44 -c 2 -a 0 -i 0 -k MAC
r -t 10.043186000 -s 0 -d -1 -p RTS -e 44 -c 2 -a 0 -i 0 -k MAC
+ -t 10.043196000 -s 0 -d -1 -p CTS -e 38 -c 2 -a 0 -i 0 -k MAC 
- -t 10.043196000 -s 0 -d -1 -p CTS -e 38 -c 2 -a 0 -i 0 -k MAC
h -t 10.043196000 -s 0 -d -1 -p CTS -e 38 -c 2 -a 0 -i 0 -k MAC
r -t 10.043500000 -s 3 -d -1 -p CTS -e 38 -c 2 -a 0 -i 0 -k MAC
+ -t 10.043510000 -s 3 -d 0 -p ack -e 118 -c 2 -a 0 -i 16 -k MAC 
- -t 10.043510000 -s 3 -d 0 -p ack -e 118 -c 2 -a 0 -i 16 -k MAC
h -t 10.043510000 -s 3 -d 0 -p ack -e 118 -c 2 -a 0 -i 16 -k MAC
r -t 10.044454000 -s 0 -d 0 -p ack -e 60 -c 2 -a 0 -i 16 -k MAC
+ -t 10.044464000 -s 0 -d -1 -p ACK -e 38 -c 2 -a 0 -i 0 -k MAC 
- -t 10.044464000 -s 0 -d -1 -p ACK -e 38 -c 2 -a 0 -i 0 -k MAC
h -t 10.044464000 -s 0 -d -1 -p ACK -e 38 -c 2 -a 0 -i 0 -k MAC
r -t 10.044479000 -s 0 -d 0 -p ack -e 60 -c 2 -a 0 -i 16 -k AGT
+ -t 10.044479000 -s 0 -d -1 -p tcp -e 1040 -c 2 -a 0 -i 17 -k AGT 
- -t 10.044479000 -s 0 -d -1 -p tcp -e 1040 -c 2 -a 0 -i 17 -k AGT
h -t 10.044479000 -s 0 -d -1 -p tcp -e 1040 -c 2 -a 0 -i 17 -k AGT
+ -t 10.044479000 -s 0 -d 3 -p tcp -e 1060 -c 2 -a 0 -i 17 -k RTR 
- -t 10.044479000 -s 0 -d 3 -p tcp -e 1060 -c 2 -a 0 -i 17 -k RTR
h -t 10.044479000 -s 0 -d 3 -p tcp -e 1060 -c 2 -a 0 -i 17 -k RTR
+ -t 10.044479000 -s 0 -d -1 -p tcp -e 1040 -c 2 -a 0 -i 18 -k AGT 
- -t 10.044479000 -s 0 -d -1 -p tcp -e 1040 -c 2 -a 0 -i 18 -k AGT
h -t 10.044479000 -s 0 -d -1 -p tcp -e 1040 -c 2 -a 0 -i 18 -k AGT
+ -t 10.044479000 -s 0 -d 3 -p tcp -e 1060 -c 2 -a 0 -i 18 -k RTR 
- -t 10.044479000 -s 0 -d 3 -p tcp -e 1060 -c 2 -a 0 -i 18 -k RTR
h -t 10.044479000 -s 0 -d 3 -p tcp -e 1060 -c 2 -a 0 -i 18 -k RTR
r -t 10.044768000 -s 3 -d -1 -p ACK -e 38 -c 2 -a 0 -i 0 -k MAC
+ -t 10.044998000 -s 0 -d -1 -p RTS -e 44 -c 2 -a 0 -i 0 -k MAC 
- -t 10.044998000 -s 0 -d -1 -p RTS -e 44 -c 2 -a 0 -i 0 -k MAC
h -t 10.044998000 -s 0 -d -1 -p RTS -e 44 -c 2 -a 0 -i 0 -k MAC
r -t 10.045350000 -s 3 -d -1 -p RTS -e 44 -c 2 -a 0 -i 0 -k MAC
+ -t 10.045360000 -s 3 -d -1 -p CTS -e 38 -c 2 -a 0 -i 0 -k MAC 
- -t 10.045360000 -s 3 -d -1 -p CTS -e 38 -c 2 -a 0 -i 0 -k MAC
h -t 10.045360000 -s 3 -d -1 -p CTS -e 38 -c 2 -a 0 -i 0 -k MAC
r -t 10.045664000 -s 0 -d -1 -p CTS -e 38 -c 2 -a 0 -i 0 -k MAC
+ -t 10.045674000 -s 0 -d 3 -p tcp -e 1118 -c 2 -a 0 -i 13 -k MAC 
- -t 10.045674000 -s 0 -d 3 -p tcp -e 1118 -c 2 -a 0 -i 13 -k MAC
h -t 10.045674000 -s 0 -d 3 -p tcp -e 1118 -c 2 -a 0 -i 13 -k MAC
r -t 10.054618000 -s 3 -d 3 -p tcp -e 1060 -c 2 -a 0 -i 13 -k MAC
+ -t 10.054628000 -s 3 -d -1 -p ACK -e 38 -c 2 -a 0 -i 0 -k MAC 
- -t 10.054628000 -s 3 -d -1 -p ACK -e 38 -c 2 -a 0 -i 0 -k MAC
h -t 10.054628000 -s 3 -d -1 -p ACK -e 38 -c 2 -a 0 -i 0 -k MAC
r -t 10.054643000 -s 3 -d 3 -p tcp -e 1060 -c 2 -a 0 -i 13 -k AGT
+ -t 10.054643000 -s 3 -d -1 -p ack -e 40 -c 2 -a 0 -i 19 -k AGT 
- -t 10.054643000 -s 3 -d -1 -p ack -e 40 -c 2 -a 0 -i 19 -k AGT
h -t 10.054643000 -s 3 -d -1 -p ack -e 40 -c 2 -a 0 -i 19 -k AGT
+ -t 10.054643000 -s 3 -d 0 -p ack -e 60 -c 2 -a 0 -i 19 -k RTR 
- -t 10.054643000 -s 3 -d 0 -p ack -e 60 -c 2 -a 0 -i 19 -k RTR
h -t 10.054643000 -s 3 -d 0 -p ack -e 60 -c 2 -a 0 -i 19 -k RTR
r -t 10.054932000 -s 0 -d -1 -p ACK -e 38 -c 2 -a 0 -i 0 -k MAC
+ -t 10.055082000 -s 3 -d -1 -p RTS -e 44 -c 2 -a 0 -i 0 -k MAC 
- -t 10.055082000 -s 3 -d -1 -p RTS -e 44 -c 2 -a 0 -i 0 -k MAC
h -t 10.055082000 -s 3 -d -1 -p RTS -e 44 -c 2 -a 0 -i 0 -k MAC
r -t 10.055434000 -s 0 -d -1 -p RTS -e 44 -c 2 -a 0 -i 0 -k MAC
+ -t 10.055444000 -s 0 -d -1 -p CTS -e 38 -c 2 -a 0 -i 0 -k MAC 
- -t 10.055444000 -s 0 -d -1 -p CTS -e 38 -c 2 -a 0 -i 0 -k MAC
h -t 10.055444000 -s 0 -d -1 -p CTS -e 38 -c 2 -a 0 -i 0 -k MAC
r -t 10.055748000 -s 3 -d -1 -p CTS -e 38 -c 2 -a 0 -i 0 -k MAC
+ -t 10.055758000 -s 3 -d 0 -p ack -e 118 -c 2 -a 0 -i 19 -k MAC 
- -t 10.055758000 -s 3 -d 0 -p ack -e 118 -c 2 -a 0 -i 19 -k MAC
h -t 10.055758000 -s 3 -d 0 -p ack -e 118 -c 2 -a 0 -i 19 -k MAC
r -t 10.056702000 -s 0 -d 0 -p ack -e 60 -c 2 -a 0 -i 19 -k MAC
+ -t 10.056712000 -s 0 -d -1 -p ACK -e 38 -c 2 -a 0 -i 0 -k MAC 
- -t 10.056712000 -s 0 -d -1 -p ACK -e 38 -c 2 -a 0 -i 0 -k MAC
h -t 10.056712000 -s 0 -d -1 -p ACK -e 38 -c 2 -a 0 -i 0 -k MAC
r -t 10.056727000 -s 0 -d 0 -p ack -e 60 -c 2 -a 0 -i 19 -k AGT
+ -t 10.056727000 -s 0 -d -1 -p tcp -e 1040 -c 2 -a 0 -i 20 -k AGT 
- -t 10.056727000 -s 0 -d -1 -p tcp -e 1040 -c 2 -a 0 -i 20 -k AGT
h -t 10.056727000 -s 0 -d -1 -p tcp -e 1040 -c 2 -a 0 -i 20 -k AGT
+ -t 10.056727000 -s 0 -d 3 -p tcp -e 1060 -c 2 -a 0 -i 20 -k RTR 
- -t 10.056727000 -s 0 -d 3 -p tcp -e 1060 -c 2 -a 0 -i 20 -k RTR
h -t 10.056727000 -s 0 -d 3 -p tcp -e 1060 -c 2 -a 0 -i 20 -k RTR
+ -t 10.056727000 -s 0 -d -1 -p tcp -e 1040 -c 2 -a 0 -i 21 -k AGT 
- -t 10.056727000 -s 0 -d -1 -p tcp -e 1040 -c 2 -a 0 -i 21 -k AGT
h -t 10.056727000 -s 0 -d -1 -p tcp -e 1040 -c 2 -a 0 -i 21 -k AGT
+ -t 10.056727000 -s 0 -d 3 -p tcp -e 1060 -c 2 -a 0 -i 21 -k RTR 
- -t 10.056727000 -s 0 -d 3 -p tcp -e 1060 -c 2 -a 0 -i 21 -k RTR
h -t 10.056727000 -s 0 -d 3 -p tcp -e 1060 -c 2 -a 0 -i 21 -k RTR
r -t 10.057016000 -s 3 -d -1 -p ACK -e 38 -c 2 -a 0 -i 0 -k MAC
+ -t 10.057166000 -s 0 -d -1 -p RTS -e 44 -c 2 -a 0 -i 0 -k MAC 
- -t 10.057166000 -s 0 -d -1 -p RTS -e 44 -c 2 -a 0 -i 0 -k MAC
h -t 10.057166000 -s 0 -d -1 -p RTS -e 44 -c 2 -a 0 -i 0 -k MAC
r -t 10.057518000 -s 3 -d -1 -p RTS -e 44 -c 2 -a 0 -i 0 -k MAC
+ -t 10.057528000 -s 3 -d -1 -p CTS -e 38 -c 2 -a 0 -i 0 -k MAC 
- -t 10.057528000 -s 3 -d -1 -p CTS -e 38 -c 2 -a 0 -i 0 -k MAC
h -t 10.057528000 -s 3 -d -1 -p CTS -e 38 -c 2 -a 0 -i 0 -k MAC
r -t 10.057832000 -s 0 -d -1 -p CTS -e 38 -c 2 -a 0 -i 0 -k MAC
+ -t 10.057842000 -s 0 -d 3 -p tcp -e 1118 -c 2 -a 0 -i 14 -k MAC 
- -t 10.057842000 -s 0 -d 3 -p tcp -e 1118 -c 2 -a 0 -i 14 -k MAC
h -t 10.057842000 -s 0 -d 3 -p tcp -e 1118 -c 2 -a 0 -i 14 -k MAC
r -t 10.066786000 -s 3 -d 3 -p tcp -e 1060 -c 2 -a 0 -i 14 -k MAC
+ -t 10.066796000 -s 3 -d -1 -p ACK -e 38 -c 2 -a 0 -i 0 -k MAC 
- -t 10.066796000 -s 3 -d -1 -p ACK -e 38 -c 2 -a 0 -i 0 -k MAC
h -t 10.066796000 -s 3 -d -1 -p ACK -e 38 -c 2 -a 0 -i 0 -k MAC
r -t 10.066811000 -s 3 -d 3 -p tcp -e 1060 -c 2 -a 0 -i 14 -k AGT
+ -t 10.066811000 -s 3 -d -1 -p ack -e 40 -c 2 -a 0 -i 22 -k AGT 
- -t 10.066811000 -s 3 -d -1 -p ack -e 40 -c 2 -a 0 -i 22 -k AGT
h -t 10.066811000 -s 3 -d -1 -p ack -e 40 -c 2 -a 0 -i 22 -k AGT
+ -t 10.066811000 -s 3 -d 0 -p ack -e 60 -c 2 -a 0 -i 22 -k RTR 
- -t 10.066811000 -s 3 -d 0 -p ack -e 60 -c 2 -a 0 -i 22 -k RTR
h -t 10.066811000 -s 3 -d 0 -p ack -e 60 -c 2 -a 0 -i 22 -k RTR
r -t 10.067100000 -s 0 -d -1 -p ACK -e 38 -c 2 -a 0 -i 0 -k MAC
+ -t 10.067350000 -s 3 -d -1 -p RTS -e 44 -c 2 -a 0 -i 0 -k MAC 
- -t 10.067350000 -s 3 -d -1 -p RTS -e 44 -c 2 -a 0 -i 0 -k MAC
h -t 10.067350000 -s 3 -d -1 -p RTS -e 44 -c 2 -a 0 -i 0 -k MAC
r -t 10.067702000 -s 0 -d -1 -p RTS -e 44 -c 2 -a 0 -i 0 -k MAC
+ -t 10.067712000 -s 0 -d -1 -p CTS -e 38 -c 2 -a 0 -i 0 -k MAC 
- -t 10.067712000 -s 0 -d -1 -p CTS -e 38 -c 2 -a 0 -i 0 -k MAC
h -t 10.067712000 -s 0 -d -1 -p CTS -e 38 -c 2 -a 0 -i 0 -k MAC
r -t 10.068016000 -s 3 -d -1 -p CTS -e 38 -c 2 -a 0 -i 0 -k MAC
+ -t 10.068026000 -s 3 -d 0 -p ack -e 118 -c 2 -a 0 -i 22 -k MAC 
- -t 10.068026000 -s 3 -d 0 -p ack -e 118 -c 2 -a 0 -i 22 -k MAC
h -t 10.068026000 -s 3 -d 0 -p ack -e 118 -c 2 -a 0 -i 22 -k MAC
r -t 10.068970000 -s 0 -d 0 -p ack -e 60 -c 2 -a 0 -i 22 -k MAC
+ -t 10.068980000 -s 0 -d -1 -p ACK -e 38 -c 2 -a 0 -i 0 -k MAC 
- -t 10.068980000 -s 0 -d -1 -p ACK -e 38 -c 2 -a 0 -i 0 -k MAC
h -t 10.068980000 -s 0 -d -1 -p ACK -e 38 -c 2 -a 0 -i 0 -k MAC
r -t 10.068995000 -s 0 -d 0 -p ack -e 60 -c 2 -a 0 -i 22 -k AGT
+ -t 10.068995000 -s 0 -d -1 -p tcp -e 1040 -c 2 -a 0 -i 23 -k AGT 
- -t 10.068995000 -s 0 -d -1 -p tcp -e 1040 -c 2 -a 0 -i 23 -k AGT
h -t 10.068995000 -s 0 -d -1 -p tcp -e 1040 -c 2 -a 0 -i 23 -k AGT
+ -t 10.068995000 -s 0 -d 3 -p tcp -e 1060 -c 2 -a 0 -i 23 -k RTR 
- -t 10.068995000 -s 0 -d 3 -p tcp -e 1060 -c 2 -a 0 -i 23 -k RTR
h -t 10.068995000 -s 0 -d 3 -p tcp -e 1060 -c 2 -a 0 -i 23 -k RTR
+ -t 10.068995000 -s 0 -d -1 -p tcp -e 1040 -c 2 -a 0 -i 24 -k AGT 
- -t 10.068995000 -s 0 -d -1 -p tcp -e 1040 -c 2 -a 0 -i 24 -k AGT
h -t 10.068995000 -s 0 -d -1 -p tcp -e 1040 -c 2 -a 0 -i 24 -k AGT
+ -t 10.068995000 -s 0 -d 3 -p tcp -e 1060 -c 2 -a 0 -i 24 -k RTR 
- -t 10.068995000 -s 0 -d 3 -p tcp -e 1060 -c 2 -a 0 -i 24 -k RTR
h -t 10.068995000 -s 0 -d 3 -p tcp -e 1060 -c 2 -a 0 -i 24 -k RTR
r -t 10.069284000 -s 3 -d -1 -p ACK -e 38 -c 2 -a 0 -i 0 -k MAC
+ -t 10.069634000 -s 0 -d -1 -p RTS -e 44 -c 2 -a 0 -i 0 -k MAC 
- -t 10.069634000 -s 0 -d -1 -p RTS -e 44 -c 2 -a 0 -i 0 -k MAC
h -t 10.069634000 -s 0 -d -1 -p RTS -e 44 -c 2 -a 0 -i 0 -k MAC
r -t 10.069986000 -s 3 -d -1 -p RTS -e 44 -c 2 -a 0 -i 0 -k MAC
+ -t 10.069996000 -s 3 -d -1 -p CTS -e 38 -c 2 -a 0 -i 0 -k MAC 
- -t 10.069996000 -s 3 -d -1 -p CTS -e 38 -c 2 -a 0 -i 0 -k MAC
h -t 10.069996000 -s 3 -d -1 -p CTS -e 38 -c 2 -a 0 -i 0 -k MAC
r -t 10.070300000 -s 0 -d -1 -p CTS -e 38 -c 2 -a 0 -i 0 -k MAC
+ -t 10.070310000 -s 0 -d 3 -p tcp -e 1118 -c 2 -a 0 -i 15 -k MAC 
- -t 10.070310000 -s 0 -d 3 -p tcp -e 1118 -c 2 -a 0 -i 15 -k MAC